(dp1
S'part_max_val'
p2
cnumpy.core.multiarray
_reconstruct
p3
(cnumpy
ndarray
p4
(I0
tS'b'
tRp5
(I1
(I80
tcnumpy
dtype
p6
(S'f8'
I0
I1
tRp7
(I3
S'<'
NNNI-1
I-1
I0
tbI00
S'qo\x11\xe3\x05\xb9\x18\xc0\xf4\xff#\x07Yq\x1b\xc0\xa7p\x01\xda\xbbo\x1b\xc0\x13Y\xc1\xbbLD\x04\xc0Ot\x0e\x19ay\x12\xc0\xf7P\xe5\xe4\xbb\x1d\x15\xc0\x8a\x83\x87z\xba\x90\x15\xc0\xb8\x9a\xedA\x1f)\xf4?\x93(\x11\x93:4\x19\xc0?\xee\x85\xf2I6\x19\xc0[\xf7\x19\xd6\x0f\r\x12\xc0\x11\xde\xf3m\x1d7\x13\xc0\xd4\xffT\xd9\x9d\xae\xfe?\xd6\xd5\xb7G\xa7\xe5\xf6\xbf=\xee\x98*)\x7f\x01@\xe5\x82~\x87\xfe\x85\x13@\xc8=\x92\xeb\xb6\xf6\xfc\xbf\x99\x15\x11J(\x83\xf9\xbf\xb5\x03\x93\x98\xc3\x96\x03\xc0\r\x12\xc9)\x99\x87\x16\xc0\xf5e\xafG\xf1]\x1a\xc0\x82\xdf\xdc\xa6lN\x1a\xc0G\x06\xac\xddS&\x1a\xc0h\x86\x19\xd91\xd1\xec\xbf\x10\x95\xb2Jh\xd3\xfc\xbf\x9a\x99o\n-\xe2\x1b\xc0d\x98~\xe0\x01\xc1\x1b\xc0\xff$\x8et\xaao\x1a\xc0\xa0\x88)8\xc2/\x1b\xc0\x05&W\xd2\xe0\x0f\x1b\xc0\x92aq\xb8\x89o\x1b\xc0\xf2p\xac\x80\xa9\x07\x17\xc0\x9c\x9ef\xc4\x96\xfc\x16\xc0\xbcK\x99\xbek2\x0b\xc0\x13\xcf\xe7\xf0\xa1\xbc\xf0\xbf]\x10n\x03E\xb9\x1a\xc0J\x9c\xa2\x87\xe6\xb9\x1a\xc04K\x9e\xd9\xa0\xe3\x17\xc0\x04z\x0bj(\x83\t\xc0\'\x01T\x9b\x1e\x9a\x10\xc0\\|\xec\xe4\n\xa9\x03\xc07/\xb7<\xf3\t\x12\xc0~yp\t\x9a\xe8\x11\xc0\xe1\x87l~\xfe$\x05\xc03}\x99 KK\x06\xc0\xb6+!\xb3Jg\xf0?\xe7\xa26\x04\x8b\x8e\xfa\xbf\xa6\x0b\x99Y\rX\xff\xbf\xe4\xd4\x06L\xba\xda\x1a\xc0p\x8bk(\xa6\xda\x1a\xc0\xe2\xe9\xbf\x02\xd1\xea\x12\xc0\xdc:/\x85\xd1\x9f\x1a\xc0\xd7\xb0A\xe0\x0e\x1c\x1b\xc0\xf0Rq\xfe\x11\x1d\x1b\xc0 )~\x9c\x85\xaf\x1a\xc0\xe4\n\x88=>\xee\x01@\xd4\x96\x89\xb4e"\x0c\xc0\xba\x141\x06U\xe0\r\xc0@\xc9\x97\xe1\xda\xf1\t\xc0$(C\x93_\xda\x0b\xc0Z\xb1\x88o\xf1\x0b\x0c\xc0\x1c\x0b\x18\xa1\x96\x94\x01\xc0"4\xd1{\xd6\xb9\xfc\xbf\x8aIC\x98y\xf1\x08@\x18\xb3^\x04/\xdd\x1a\xc0\xa7z\xf0\xcd\xfb\xdc\x1a\xc0\x8f\xdbq31\x03\x1a\xc0\nTW0\x14\x8d\x1b\xc0\x0f\xb4\xd5E\xef\x8d\x1b\xc0\'D\xca\xc3\x01\x9b\x10\xc0z\x01p\x93ap\x0c\xc0\x80!\xb0O\xc5\x1c\x1b\xc0\xfa]\xbbK\x00\x1a\x1b\xc0\xa4\ry\x01^d\x1b\xc0G\x06\x85k\x95\xdd\x1a\xc0\xe6\xff2\x93w7\x19\xc0x\x8a.2\x17\xf2\x05\xc0\xc0\x8a\x0f\x88\xf9\x9a\x01\xc0\\\xd1\xb6\xd1\x00\x87\x07\xc0!l\x0bY\xceV\x17\xc0'
tbsS'repeat'
p8
I0
sS'part_pos'
p9
g3
(g4
(I0
tS'b'
tRp10
(I1
(I80
I4
tg7
I00
S'V\xf0:\x1b\x05\xddP@\x90\xda\x05\x96\x99~o@X/\xca*A\x91r@\xcb3\xbd\x13\xbd\xf8\xf3\xbf# \xd3\xac\xae\xe7O@\xdd\x0e\xdd\xaf\xa7\xcao@dV\xc8\x84\x95\x80q@\xe4J\xb4\x89\xfcs\xf2\xbf\x95l\x1b\xfe@\xbfP@\xd6\x97\x93\x88\xe4\xe2o@eC\xd9\xb5\xcdXr@\xbc\xc2\x06t\x0e\x12\xf2\xbf\x1c-:\xd6\x8e\x81Z@\xe4\x1b.\xc9D\xf1o@\xdc\x15)\x8e\x9bZu@Z#\x88\xf5\x1b\xbd\xf3\xbf\x83\xdco+,`_@\xbf\x9d\'\x18\xbd\x83p@3Fr!\x83qB@\xd7a\xce\x87;}\xe3\xbf\xc0\xaa\x94\xcdv\x83\x0f@\xc4^\xfb\x7f\\\xf2o@\xa0\xbc#\x8f\x96\xc75@\t-9\x81\xe3Y\xe0\xbf15!\xb3\x9dn_@\xdc^\x88\xcc\xc4\x8ap@E\x87<f&\xec\x1e@\xb0\xb0\xc6$\xda\x93\xe5\xbf\xa6\xdd\xfe\x06&\x92l@;O\xeb\xb5\xe4\xe4p@\xf0\xbe|\xb9\tOP@\xc1\xdb\xf6\xe55\xc9\xf5\xbf\xff\x12\xaf\xe1a{`@~\xd6h\xc1\x82hp@B\x0c\xe2Z0\xcf @k\x9b\xa0\xee\xa2i\xf2\xbf\r\xb3\x82\x82,4i@@d[-\xc0\x97-@\xec\x9c\xd7F+\x03"@TiA\x98\x0b\x13\xf2?B"M\xe9\xb1Ht@\xfe\xa6\xc8GP0q@h\xaa\x05\x1bUiv@\t\\(98x\xf2\xbfx\x00\xd9\x02[\xffX@\'jt\x97[\x16q@\xf6\xfe\xa4\x19,\x1f`@\x80I\x02D\x93\xec\xf0\xbf\xf0A\xe5:\xa9\xcaZ@\x999(\xbc\xe9\xc0n@\xc0*\xcd/\xe6\x8bs@\xc8/\x18\xc3\xe6|\xd3\xbf\x02\xb6C\x99\xbd9v@\xaf\xc0Tu\xa6;p@}z\xa1\x8fQ+k@\xa6$\x906\xbdC\xed\xbf\xf6Z*A\xd0\xddu@:1\xc0F\x80\xbaq@\x14\xbe\x96\x1c\xb5\xcfe@\xfa[\x1e(\xca\n\xe3\xbf\xbaa\xa1\xcd\xc2\x89K@n\x9f\x90-B~r@\x86\xd4`\xaf};j@\xaa\xfa\xed\xe0\xe5\x19\xfa?\xd9H2\x03S\x03O@<\xfa\xc1r=xp@\xf1\xce\xc1\xfb\xa1\x0bp@\xf7K\xa1\xe4\x07\x18\xfc?*\xf7\x07\rC(X@\xed\x91\xd1\x82]Fp@FA\x1f\xc5\x97Wt@\xca:\xd8qz\x9f\xcf?\x98\x06\xc8\xf0\xa4^P@f:a\xe0\xdaTq@\xdfq\xf4\xcf\xac\xdau@n\x8f.M\x02^\xf9?\xf2k!\xa3\xbb\xccR@l\x1f\xce\xcb\xc8\x9fo@\xd7\xc6z\xfei\xd2t@g!\xfd\x11\x84\xc6\xf3\xbf\n\xeeD(}\xa0S@\xd4\xcc\xe6W\xbb5p@\xba\xf7\x8f\xe2\xa4\xaet@\xc5\x9e\xa8\x96\rS\xf2\xbf\xb2\xb7\x03[\x16hS@\x80\x0b\xfd\x0fp6p@\x9d\x05\xd5\xc6\x11\xa6t@Uh\x8a\xf3-\xa7\xf2\xbf\xd1\xfe\xcd\x84\x8eeS@\xb6MZ\xebc6p@\x8c\x0f\x7f\x02\x9e\xc6t@\xde|\x945u\xfa\xf1\xbfA\xd4\x1d\x08ZRU@v<\xb3)\x98mp@\xeau+\xbb=\x1dt@\xc1\xee~3\xa9\xdc\xf9\xbf j\xab\x8c\xaa\xdb]@\x03\x8d\x9d\x1f\xe4\x11s@Av\xc3(&\xcb_@R\xe2\x82\x86\xd7!\xdb\xbf\x86Z\xf1\xa3\x9b#o@\'j\'Q0\xc7q@\xc1\xaa/\xd9\xfa}`@\x06B\x89\xe2V\xcf\xf2\xbf\xb8`,Kx1l@\xc5\x1foP\x8fcq@u\xedp\xcf\xb3\xde`@\xb0L\xed\x15\xd0W\xf4\xbftT\xaf\xcb\xb5\xb3p@\xa3\xb8\xf9\xbd\x11uq@\xcd>\x0cN\r\x8bb@\xc3L\xd9\x10\xba\xff\xf1\xbf\x1a\xe1\xec\xb0m\xbfq@.\xb9|\x8bZaq@\x11\x82\xbfx\xc2\x1bd@}\x88M{\xebx\xf3\xbfY\x12\xaa@\x7f\x1er@\xc0\xd9j:\xcdYq@\r8fe\xa7Ff@\xc9\xacZ\xab\t \xf5\xbf-r\xdf\x95b\xcfq@\xaa>a61]q@\x0b\x00\xf5\x83\xec\x9bd@\\\xfa\xf0\xe4L\xac\xf3\xbf\x8c\xd9\x95\xa5k;r@\xa2\x1a2l\x88\x84e@\t\x14\x98C\x7f\xa5d@r\x04d\xeb\xa7\xee\xf2\xbf\xe0\xbc\xe7\x1c\x10\x08r@\xc9B\xdf\xf8|:q@\xd7\x93\xe3\xc0n\xb0d@\x06\' \x96\x90x\xe7\xbf\xaaM\xe6%\xb8\x81q@L,2\xb2\xc8\xadp@\xa0\xceQO)\xb6a@c\x80\x89@\x17\x91\xe0\xbfI\xeb,\xbdh\x9cs@\xc6W\xe0B\xa3\x0bq@\xd8\x85\xc8\x92+\xces@\x00HxK\xa8\x01\x8a?\xf6\xf7\xfb\x82\x02fr@\xca\x08\xdb\x19?\xddu@%\xed"\x9f\xa3Pf@\xaa\x91#]\xceB\xf0\xbf\x0c\\\'\x82\xa1\xfes@6Gjr\x01\xd9l@\xd6\x0b?Wc\xbba@0\x8b0\xe6z\xf0\xfa?&\x99aD\xbb\xb5r@\xe5\x82Ork1q@S\xbf\x83\xe5\x18\xc9e@\x197q\xb0\x9d\x92\xef\xbf\x0c)g\x85\x1e\xb6u@\x0f+c7\x05`p@\x99v!\xe5Xak@H#\xf6\xe5\tx\xd3?[I02\x1fSQ@\xcc\x05&\n\xa6\x93q@\x13\tb\x03\xd4\x90s@@\xb1\x9f\xb8\x1a\x0e\x82\xbf\xd0\xbc\xf5`\x9b\xe8`@?\x82\xa6w\xcc\xd2p@\xd8\xf2. o\x8d^@\x1c\x030\x136)\xdf?\x9cCid\xe9\x11`@\x8e\xe1a\xa74\xbbp@\xa70\x18\xfcy[u@9\xa3y\xbf\xad\xb9\xdc\xbfO\xbf\xea9\x87pp@16\x1e1\xe3\xb0o@\x15r\x02&h\x06o@|\'\xcbW\xb0\x95\xd6\xbfQ\x15\\`Nsp@C\x7f\xac\xdcY\xf1p@l\x80\x9a\xadC9c@`8\xb0\xa9\x08H\xe3\xbf\x86\x88\x85?\xdb\x93p@\xd3gH>\xdb\x11q@\x1e\xceU\x9f\x04;\\@0\\fz\xa3\xd5\xf2?_\xf4\x14\xe4M\xbfo@\x1a\xef\xed3\xed\x01p@B=\x11p\x10\x97W@\xd47\xfdIbo\xcd?\xd6D\xa9\xeeQbe@\n\x13\x13Z\xb2\x91p@\xc3\xd9\x8a\x14\rAt@\xa8\xcd\xf3\x03H\xb9\xf9\xbf\xe2\xfe*\xc8npq@\xe4\x9b\xe23\x04\xbcq@\x89\x11V+3\x11`@`\x08t\xf3$Q\xb7?\xb4\xdf\x14\x1a;vr@\x91se"b\x14q@\xa4Yu\xcbF$t@\xc09\x97\xc1&\x16\xec?\x9d\x08\xe4\xd3\xc4\xc0q@#;\x9a\xb7\x02\xe6p@\xb6\xb2\xf3\xa9\xcf\x13g@\x88\xca\x89S\x02\xbf\xec?\x845\xe6O\x02\xddq@B\x04Q\xec\x99Fq@\xd5\xbb\x93\xb8\x1b\xe5l@\xa0rS\xc9k\xe6\xf5\xbf\xbeB\xcfK6\xd9q@\x94h\xb4D\xb1Jq@N\xeb"\\~Kd@\xf6%5\x95\xd3\x11\xf2\xbf\xa2\xbe\xf7\xa8\x9ezr@\t\xf0\xa5\x84\xd2Vq@\x86w\xe9@\x0f\xa3e@\xc8}\xa6\x1d\x11X\xf3\xbfcFU{zPr@\xb4.\x1a\xbd\xa0Zq@?\'\xe5\x81\x9c\x96e@\xd0=\x82\xedha\xf3\xbf__&\xcdzQr@\xb1;8\xd9\xferq@\xb6\xf1\xff\x0b\xc7(h@8\x81\xeaX\xe46\xf4\xbfLEh\x84Yrr@\x9c\xa8\x01\xe4K\xf8r@\xfd\xca\x1b\xde+\xa2_@9\x1b\xedAs9\xf7\xbf\x03 \xa4\x01I1p@\x9f\xfa\xe6\xd3\x9d\x97q@\xe6\x0cr\x16F\xafZ@\x0fI\x11\xb8\xb04\xb9?6K\x0b,m.n@N\xd2T\xa3G\x95q@\xb6E\x1d\x17\xae\xc0V@\xfe\x85}\x0c\xca\x7f\xb9?\xb9\xe9\x86\x1b\xc8\xb8l@\x8c\xca\xbc\x85:\x1br@\xedd\xdd)H|g@\xc6\x19\x0c\xca\x84\xe3\xba?\x8e)l\xd9\x87\x86m@\xa2\xa66\x7f\x04\xb3q@\x85\xaf\x8b[\x07sq@\x02\x06\r\xe4gi\xd7\xbf\xcf=\xdcB\x14An@$\x11\xbbj\xaa\x8fq@e\x8f\xea\xfd\x06\xe3R@\xef\x8di\x83\'\xdb\xa0\xbfs\xfb\xf2\xd9%qn@T\xd4\x91.A\xd1r@\x04\xdf\xb6#\x1d\x18O@\x90\xd4\x00\xb4\x93q\xcc\xbf\x9b\xca\x8e<X1m@\x1f\xe0[t\n\x93p@\xda\xdaj\xa5\x8f\xeeU@\x1a\x1f\xafl\xd9\xc7\xd0?\xd4\xa4\xe4\x89\\wg@#]\x14\xc0\x86\xabo@\x97K\x01\xc0?\xceZ@3\xc7\x7f\x96(\xfe\xea\xbf\xd4\xf3 \xa3\x10\xf9^@\x02\xc5\x1bb\xc0\x85c@\x840\xca\xf1r\xedl@\xfe\x9c\xbc\x101\xc0\xed\xbf\x9e?\xf2\xc9\xef\xa5r@"\x9frcADs@&\x0e"\xc6=\xd0]@\xb0b\x14H\xb8\x82\xcd\xbf.\xf1Nc\xb1\xb2n@\x06\x99y6I\xdfq@\x8b\x17\xeb\x18\xfd\xbfc@\x8d\x1c\xc1\t#\x12\xf0\xbfp\xa3\xae\xb3 \x05o@\x01*\xba\x86\xc2\xcaq@\x1fle\xe2\x87\xcc^@\x16\xec8\xa8&.\xf1\xbf\xb1L\xefJ<\x07o@Pb\'mJ\xcaq@\xad8\xf9ei\xc9^@\x1comz\xb0"\xf1\xbf\x00\xf4;\xaeMH\xec?z\xd6\xc7bS\x03m@\x97[\x96\xd9\x85\xefu@l\xf1\x9b\x0esv\xf9\xbf\xda\xeaaun\x92q@\x82\x12\xc4N\x80\xa5p@\x1f\x86SL\x10\x03n@l\x89\xb0\xc7bN\xdb?\x00(\xe1UZ\x19V@\xa8o\x89X\x03\x15p@\x00\xb5n0\xffI\xf2?\xc0Z\xb9\x80X@\xdb?\xf8B\x11!]XT@\xf9\xd5\xcf\xb9U\x02p@~\xc0\x11\xdal\'t@\xfc\xf1\xe2\xbe\x87\xc0\xf2\xbf\xafcn\xec\xa9=T@\xe3G\x8cKO\x13p@V\x8a\x1e\x9ad\x05t@\x99\xb0C\xedA\x91\xf2\xbf\xb0l\x93\xf2\xfb\xebW@\x9eq\xfa\r\xb5tp@^\x1a\xb2\xbf\x06~t@\x82%\xfd\x07\x9a\x9e\xf2\xbf\x10\x197\x7f\x10\xcbQ@\xbf\xb1\x9b\x8f\xee\x1fp@"B\xbbE\xc9\x9at@\xc6\xbet\x96\xda\xaf\xf0\xbf\x19\xab\xdb\xbdw"R@\xf4\x0b\x92>E\xbco@hk&u\x00\xe2u@hW\x18\x06\x19\xba\xf2\xbf\xa5\xc2fU\x8d\x04Y@\x86\x11\xfc\xd1\x9c\xfbp@\xa0Z\xfeP\x12\x96W@\\\xad\xfbz-m\xcf?\x0f\xee\xccb=wY@E\xa6P\xa5xlq@\xd1\xa1\x1f\x96\x11Es@\x10\xf1-\x96\xfec\xbb?\xb6\t\xca\xab\xa8mS@\xc7\x17\xb6\xa5\xe7\xc9o@qz\xf8\x8c\xf4\\s@\x02\x89\x1f\x9c\x071\xfa\xbf'
tbsS'repellers'
p11
(lp12
sS'part_max_pos'
p13
g3
(g4
(I0
tS'b'
tRp14
(I1
(I80
I4
tg7
I00
S'\xfcs\x94D\xf2\xe9R@>\xcdr\r\x1d\x1bp@\xb8\xdb\xfc\'\x8eWs@\x95\x8f\xf4\xbe\xa1\x97\xf4\xbf\x1eV\xac\x93\xde\tQ@\xc3\x00\xef*\xae\xebo@\xd4\x08l\xffZ[r@\t\xa0P\xf5\xb1\n\xf2\xbf\xe5\xaf3ai\rQ@\x1bl\'ye\xebo@\xcd\x1cx\x9aZ[r@S\xe4Yz6\x15\xf2\xbf?\x15\xe4\x9c\xb9~_@\xf4\xb7$+\xc27p@\xc0\xcf\x89\xa3l\x90,@\x08y\xee\xad\x04\x1e\xed\xbf\x83\x95\t\xf0\xabu^@\xe8\xe5\x81\xb6]wp@\x90LQ\xa6\xc1\xa61@A9\xaf#\xf6\xcc\xe2\xbf\x0e\xf4\xad\x80\xc0S_@\xb7H\xf7\x03\xf4\x91p@\xde\xbfp\xb5\x86)\x12@^\xd3\xb9m\xf1\xb5\xe3\xbf15!\xb3\x9dn_@\xdc^\x88\xcc\xc4\x8ap@E\x87<f&\xec\x1e@\xb0\xb0\xc6$\xda\x93\xe5\xbf \x1a\x0f\n\xd0QK@"c\xa5\xefe\xadp@b\xa7\x0f\x97\x97\xc1o@\xe02\xc9O\xcb\x9a\xfb?\x08`\xb7\x85\xb8z`@Ku4k\x9chp@\x8c\x0fU(\x17\xe0 @\xb0\x9e\xb1G\x89^\xf2\xbf\xe0\n\xd2#a{`@\xa8\xf8cWihp@Es\xab\xbcX\x99 @x\x82\xb7\xb6\xfeU\xf2\xbf\xb3sh\xb7\x02lp@0Z\xce\xc4`}q@\xfb\x9c\x1f\x93\xed\x9e`@a\xbb\xbf*\x90m\xe0\xbf&\x10\x1e\xb7\x15Bp@7C+r\x8d`q@\xb4\x85\x89\tc-`@\x07\xd81\xa4\xc2/\xe0\xbfh\xab\x913\x8e4L@:\xd8\x90\xa0\xc8\xaeo@<"\xbb "\x01o@\xaa\x16\xf69\xb1\x92\xf7?7u\x96\rR\x07v@\x04\xe7\x0f\xb8w\xcbq@*wM0\xf7\x12i@\xe4V\\r{\xd8\xe2\xbf\x11\xc8\xdc"|_v@\xe6\x8bJ\xd5\x1b\x97q@\xa9j\x9c\xe6\xb2`h@\x06jD}e\xbd\xd6?\x9a\x92i\xb2\x04\xb7t@/@\x89\xc6\x17\xa7r@ \x91u2\xdf\xe8l@\x00\x04Z\x81\xf2\xfa\xfa?\xd9H2\x03S\x03O@<\xfa\xc1r=xp@\xf1\xce\xc1\xfb\xa1\x0bp@\xf7K\xa1\xe4\x07\x18\xfc?\xfef;E\xe4ZZ@\xd33:\xde\xbc"p@\xae\xa2\xd0\xb1\xb3St@ \x93K\xb9\xcb\\\xd6?\xa0\xe6\xcb\xe60LZ@x\xbfE\x8f\x1c\xbep@\xe1\xebdD\x02\x8dt@(;0\x1d\xbe\x93\xd6?\xf7\x9a\x1bH,uS@\xc9{\x9f\xbe\x9d\np@5b.\xab\xb4Zs@,qAfax\xe8\xbfG\xbc7\xa4\xc3\x96S@\xbf-\xfdos6p@\xda\xb2\x9d\xfc\x8c\xb1t@\x08\x90\x95c,M\xf2\xbf\xf2\xb8\x8e\x81QfS@n\xc2\x80\x97(7p@I6\xcb\xaf\xac\xb9t@\xe2\x8c\x0bM!\xac\xf2\xbf\xd1\xfe\xcd\x84\x8eeS@\xb6MZ\xebc6p@\x8c\x0f\x7f\x02\x9e\xc6t@\xde|\x945u\xfa\xf1\xbf4\x0e\xba\x19\x9f\x0b[@WbW\xd9u2p@\x13\xbeNg:\xe5t@\x10\xd8\xfca\x83U\xd4\xbf\x81e\x9f\xd4?\xb2a@\x90\x13\x98`\xe1\x0cp@\x12{TO`\xcct@\x1c[n\xf1\xc5f\xdd\xbf\x1dt\xddz\x8d$o@C\x98*T0\xc7q@y\xac\x82\xed\x10~`@\xaf24\xfa\x1e\xcf\xf2\xbf\x86v\xe2\xcc\\Yo@u\x04\xa9[;\xc7q@h\xbc\x9c\xdex\xb3`@\xd5D\xbe\xbf\x19\xfe\xf2\xbftT\xaf\xcb\xb5\xb3p@\xa3\xb8\xf9\xbd\x11uq@\xcd>\x0cN\r\x8bb@\xc3L\xd9\x10\xba\xff\xf1\xbf\xe1\xe9\'\x89\x1a\xbfq@\x80\x1c.C\xa6aq@\x9a\xa3B\x11\x85\x1bd@\x81\xc6CREw\xf3\xbf\x9c\x94\xee\xa0B\xc2q@\x01S\xc5\xc5X\\q@Z8p<!\x94d@\x9b\xed\x90\xbb\xbf\x11\xf2\xbfj\xfep\xe1r\xd0q@\x7fp\xe011]q@\xe6N"\x88\xf3\x95d@\xbf\xd5\xd3>q\x89\xf3\xbfkn5\x9aM\xf7q@\xc6\xd2]\xde\x0b:q@(\x89\x8a\xd0\xf4\xb5d@\xe7aa\xa9;\x8f\xe7\xbf\xe0\xbc\xe7\x1c\x10\x08r@\xc9B\xdf\xf8|:q@\xd7\x93\xe3\xc0n\xb0d@\x06\' \x96\x90x\xe7\xbf\x16b\xd2zzPe@\xc3y|=~\xcdp@P&\x80\xe1TJ5@u\xf0\xf5P\x7f~\xe2\xbf\\\tj\x9c\x05\xa1S@\xb4\xf0i\x0f*\x81p@\xdb\xca\x85s\xf5rr@\x1c\xb0<a\xfcK\xf7?\xf7\t\x97\xb0\xd8\xdbr@\xf2o\x95\x08!Xq@\x99\xd0\xe1[\xa0Kf@\xd2z\x11\xffYO\xf3\xbf\x9b7\x1d\xa3\x82\xdbr@\x9e\x91~\xd4\x19Xq@\xc2\xea\xb4\x9c\x98Mf@HvQ\x1aGO\xf3\xbf\xa60\x08\xde\n\xa2r@\x8c\x87\x19\x81\xfe<q@C\xf6\xb0\x0b\xb2,h@\x90\xc0\xd5\xca\xe7\x04\xee\xbf\x95\x13d\x12\xae@T@\x17z\xc5\x0cPlp@\xb9\x890\xcb\xdd\xc1p@\x9f\xf2\x01\xdf\xfa3\xdd?\xa0\xc6Rm\xe7WP@j\x01\x92\xa4Sgp@\xdbO*c\x0f\xe1p@\xd7\\\xf2\xdf\x9f\xe5\xaf\xbf\xd4\x8d\xce_\xbe\xd1Z@\x87\xf6\x0f\x19.\xd8p@\x88\x00]v5Zu@\x9f\x0bD\x8d\xfe \xc3?\xfe\xde\xd7\x004\x11`@.\xbbPG}\xbbp@8OW0x[u@\xb0\xe4if\xb4\xd0\xdc\xbf\x14^7\xf8r\x0e`@\xd0\x19\xb7\xa7S\xbcp@FE\xf2\xadk[u@\xc5}\x87ECL\xdd\xbf\x19\xbe\xf9\x8eL\x94p@\xb7T!\xf6\xe3#q@\x0f\xd8{\xb3\xca\t\\@E\xbe\xfd\x99D\xd5\xf2?Y\xc5\xb27\xe7\x93p@\x9c\xd5<\x03\x95\x16q@\xbf\xe7\xbe(\xd2=\\@\xe2\xe87\x98\xae\xd5\xf2?\xd0[\x1e\xea+\xccE@\xb6\x9f.tB\xefo@\xd8nJg\x95\xe3m@\x00\x9fK\xb4\x00M\xb9\xbf\xd6\xcf\xe8\'\xc5 ^@\xb2\xf3Zn\xde\x96p@\x08c\xfb\x90\xa4\xf9r@\x80\xd8\x92\x12\xa0\r\xd8?L\xfe-\xc6?\xe0n@\\\x7f\xe5u~\xf4q@\xfd@\xa8\xb1\xbcz[@*$\x19|\xbe\xee\xe5\xbf\x1c\xd5\x16\xab\xebLr@Nv\xe6\xb1\x96Mq@*\xda\x19\xe7\x96\x7fe@C\xc1V\xf1z\xe3\xf1\xbf \x94\xa2\xa2\xebLr@Y\xfd\x96\xed\x90Mq@\x7f\xca\x11\xab\x01\x80e@\xc9x\xf1\xd3\x81\xe3\xf1\xbf\xa5\xa7\x95\xda\xb6\xf8q@}\xc9\x1c-\x99Fq@-B\x14\xea\xa2\xcdf@\xfbF\xa9\x0f96\xf4\xbf\xbeB\xcfK6\xd9q@\x94h\xb4D\xb1Jq@N\xeb"\\~Kd@\xf6%5\x95\xd3\x11\xf2\xbf\xa2\xbe\xf7\xa8\x9ezr@\t\xf0\xa5\x84\xd2Vq@\x86w\xe9@\x0f\xa3e@\xc8}\xa6\x1d\x11X\xf3\xbf\xd9D\xdc4\xdcZr@\x96\xa5\x83\xfa\xdeXq@6\xff\xb6/\x1cpe@\xbe\xeej\xfbL\x1d\xf4\xbf\x0f\xd8\\\x10\xaehr@;\xfe\x7f\xf2\xbbOq@A\xa16p\xe1\xb3d@~\x90/N\xe0\x95\xf2\xbf\x17\x91\x9e\x12X\xd5c@\xda\xdf:\x01\xf7\x16p@`\xb1\xc19.\xddL@\x98\xecZ>\x0fK\xd0\xbf\xb9Ny\x1e\xef\x86p@\x18P\xfdZ\x08\x98q@!\x0e{\x0e\xd1A`@\x96\x86H^\x0fM\xb4?\x17?\xf98\xbb,n@4\xe8\xcf\xd1F\x95q@P6,\xf9?\xc3V@"\xa2\xa4\x1c\x06\x80\xb9?\xeaP\xb8\xf6\xf9um@\x00\xe1\xcc0\xc3\x9cq@a\'\xc5\xf1\x1e\xeaQ@U\xba4=\x15\xa8\xba?\xff\xb2\xcc\x91\x96\xa4m@\x92\x94+7\xdc\xa7q@\xc2\xae\x9a\xef\x9d\x08S@\xe5\x16\x04\x17\x8c\x83\xb3\xbfx\x1d]k\x1a\x88m@%\xe4\x06ng\x86q@\x11t\x9dS\x90\xddR@:aN/\x17\xdb\xa0\xbf\x93\xe5\xbc(x\x95j@u\x97j^\x13+p@e\xcc\xdf<<\x1dQ@0s\xc0[\xb2/\xc4?\x1c\xdd\xc5j +l@\x9b\x9f\xfe\x97\xa9\x02q@\x1c\xc0Z\xd0\xa9\xf1R@\xd0!\xf3\xc1\x0f\x01\xda?*\xee\xeaP\xb2\x8aZ@\xf7\\\xacV\xc0\xdbn@j\x19\xf1w}\x1cv@\xd0\xbe^e\xc7\x14\xe8\xbf\xbcn\x83\x1c\xef\xffq@\xa9\xa3\xe0^\x13Qq@\x1e|>X\xd0\xcdd@T\xba\xfc\xe4P\xa7\xf1\xbf\xd4\x1c\xf8\x04\t\x00r@T\xa19\x8f\x07Qq@\x9bC\x00:\xc9\xcdd@\x90\xcd\xbf\x1d\t\xa7\xf1\xbf\xfc\xa6\xb8\x17Giq@\xed\xc0\xe1\x82\xe1Mq@\x9b\x145\x1c\xdf\xa3c@\x89\xc0\x15L\x1e\xf1\xef\xbfp\xa3\xae\xb3 \x05o@\x01*\xba\x86\xc2\xcaq@\x1fle\xe2\x87\xcc^@\x16\xec8\xa8&.\xf1\xbfp\xf0\xbb" \x07o@\x882\x84\x1f\x8f\xcaq@\\\xd7\xe2\xe6\x95\xc8^@g\x8c\x9e\xecl(\xf1\xbf\x7f\xca\xac\xe6\xec{s@\xd1l\xd9\x98\xa9\x05q@@\xa9\x04\x02j:f@;\xcc\x8fw\xd6@\xc6\xbf\x83\xb5\xb0\xd8\xa7\x14t@\xda\x14\x1b82\x05q@\x98\x19\xe4\xd8\x9e\xc1f@\x00\x9d\xa6\xc5\xc1\x16\x9d?>p\x1f\x0e\x04\x02U@\xbf\xfa\x97\x98\x13.p@\x0e-\x17J_pt@?\xf9(\xdc\xfb\xd3\xf2\xbf$\xf2\x8a\xf56\xfeT@\xe4\x85\xf2L\x1c.p@\x8a{\x90\xcb\x18nt@A\rN\xa2\x05\xcd\xf2\xbf\xafcn\xec\xa9=T@\xe3G\x8cKO\x13p@V\x8a\x1e\x9ad\x05t@\x99\xb0C\xedA\x91\xf2\xbf\x7f\xaec\xaf"\x18V@)\x89\xa8C\xde3p@\xc3\xd2f3\x02\x95t@\x12\xba\x9cw\x97\xd8\xf2\xbf\x10\x197\x7f\x10\xcbQ@\xbf\xb1\x9b\x8f\xee\x1fp@"B\xbbE\xc9\x9at@\xc6\xbet\x96\xda\xaf\xf0\xbf9\xee\xaf[)\xc7K@\xcb%\xc2e\x8c\xa6p@0I#\x84C\x1dr@\x01\xd9!U\xdd\xa0\xa9\xbf\x1d\xf6xd\xb6\x05W@\xdb\x91\xbf\x961\x93p@F&%t]dr@\\\x1e\x83H"\x08\xd0?\x84\xdb(\xcb\xf8\x01Y@\x0c\xd1k{v\xaep@ZK\xd69\xd7\xffs@\x13A\xe5\xa0RH\xd1?@\xf3\xfe\xb9\xef\x1aQ@\xa4\xbb\x1a\xfdo\xeao@2\x83C\'\xdf;s@\xdfJ\xd4\xddk\xb5\xe8\xbf'
tbsS'ts'
p15
I199
sS'part_vel'
p16
g3
(g4
(I0
tS'b'
tRp17
(I1
(I80
I4
tg7
I00
S'\xbc\x02g\xb1\xc0&\xc8\xbfN\x9e0\x04s\xf8\x1f\xc0\xa6ve\x85d0\x11\xc0\xf8\xbf\xaf\x087\x9b\xcb?\xe9\xcb\xe4\xff\x9fe\x1b\xc00\xa4aE\xd3\x83\xa6\xbfX\xfb\xbaq\xde\xb6?\xc0\xfa\xb3v\xb5a\xe6\xa6\xbf\xe0\xb7\xddkL\xf8\x01\xc0\x9d\x88p\x14v\xf4\xde\xbf,\x06\x83\xb4W\xf3\xe5\xbf\xa2\x7f\'H\xc4\xa7\x8c\xbf\x10\xd1\xb2\x9eB\x88W@\x81\xb1w\xcd\xb7\xce\x13\xc0\xd2\xe2\x04\xb9}\x9ah@(\x95f\xbf\x99B\xdd\xbf\x94,\x9b\x17\x9b\x08\x11@R\x16\x97\xeb\x85\xd2\xf5\xbf\xfa\x13\xf4\x80?\x921\xc0\xa0\xa1)\x81\x1da\xa1\xbfp\xd8|\xdfW\xe57\xc0\xe0\\\xe0\xd9c\xda0\xc0\xd6\xdc\xf1\xfa\xac\xf99@$)\x16\x9e\xb8\x0f\xcd?\t\xb2\xa6m9\xf4\xb7\xbf\xb2\x95-X\x97W\x82?cZ\')\x8d\x84\xbf?\xbc\xdf\x8a\xc3\x8e>l\xbf\xde<\x03\xf2\x9b\xb6j@\xdc\xa4"@\xf2\x1a\'@\x00\x00\x00\x00\x00\x80v\xc0h\xf8#\x16\xce\xf3\xac\xbf;\xd9\xcd\x0c\xa9\xa0\x81\xbf\xc0"\xce\xad\xb4US\xbf\xf7\xc2\xad\x1ba\x06\xc2?U\xf44\x97\'\x84v\xbf\xbfe\xe1H=ue@\x00\x00\x00\x00\x00\x80v\xc0\xb2!\x0e\xca\xd9\xad\x03@\x00\x00\x00\x00\x00\x00\x10@4d9.\x01hr\xc0\x94v\xe2\xdc\xacx$@q~-NO\x8cg\xc0\xc4\x99PZ4\xb1\x92?\x00\x00\x00\x00\x00\x80v@\x08\x9e\xbe?\xd9\x97`\xc0\x0c\xc7?\x0b\xa8\x9d\xf6\xbf\xc28\xb6HO\x14\xf2\xbf\x14|\xe5,\x89\xf9k@\xd4\xee]w1\xa7E\xc0d\xfb\xd0\xa1\xa7\xa6Y\xc00/\x85\xec\xee\x02\xf4?\x96*\x1dp\xf5\xe1.\xc0\x88`j\x16\xe4\xc5N\xc0\xd8~\xc9\x1f\x1b\xd9C@\xf8\t\x1cz\xafu\xe1\xbf\x1a4\x19\xe8`\xde\x1b@y\xd5\x11n\xae\x0e\xea\xbf|\xfd1\xe5?\x1f!@\xc6e\xd6\xdb\xb7\xbf\xe2?\xda\xc8A[xYJ@hX6\xe9@]6@\x188K\xbeAHP\xc0\xc4\xd9\xef\x83`4\xc0\xbf\xd8\xd7\x1b\xf1\xd4?\xb6\xbf\x16\x92\x1d\xce\xed6\x06\xbf\xc5#*bL\xa8\x12?\x93w\x1d\xc3\xd7M\xc7>\x9c~\x9b\xc1\t\x95!\xc0$\r\xafKR\xd0\x01@\xe0\xbd\xf4t\x9a \xcf?\xeb\xd6}\x01:4\xba\xbf{\xca\xa3c/\xcaD\xc0\xd2\xe1g\x91\x03\xfd4@\x8d%\x94\xeex\xeaH@P\xad$\x1c\xc2\x1f\t@\xd2S\x11\xa9\xe2\x18\xf6\xbf\x02]_\x13\xe0S2\xc0\xb6\xd9\xab T|B@}\xdc3c\xa5\x94\xb9\xbf\xa4\x85c\x1a\x08s\xc3?\xb5l\x1d\xcc\x02\x03\xa7\xbf\xf2\x02\xd9m\xd0@\xc7\xbf1\xf2:L\xcc\x84W\xbfL\xfc\xebO\x97M\x9c?\x17\xb6\xddv\xf0\x10\xa7\xbf~\xac0\xf6\xe8\x9a\xf3\xbfP4\x92\x04f\xcdS?\x80\xa5\x84\x99@\x83\xb6\xbf\xd0uk\xd1\xfaO`\xbf\xbb\x04s=\xb1\xa7\xc8\xbfnyS<\x05\x98\x9b\xbf\xcc\xe7pF\x14\xe56\xc0I\x0f\xed-(\x91\r@\x1b\x05i\x84\x95\xff(\xc0\xbd\xb8\xffZH\xc7\xf4\xbf\xfc\\ \n\x85\xccD@V\x05\xc1P\x9e\x9cB@\xe91`8\xe5\xb4U\xc0L\xd1d\xd0Pf\xc5?^\xe4\xb33\xef0\xb2\xbf\xe0\xa8\xfd\xab=e\xf3>\xaa\xefR}\x95\xdb\x84\xbf\xb0\xab\xaf\x19Cw\x19\xbfpGs+:CF\xc0\xd4\xb3\xd6Y_\xbf$\xc0\xdc\x06D\\\x8c\xe8\x08@\xf2\xf6\x1f\xa6\n\xd0\xd3\xbf\xc0\xaeq\xad\x99\xb8\xe6\xbf\xa7n\xd0\x99\xde\x8c\x10\xc0\x8f[\r\x85\xf5\xc1"@\xd6\x10R\x04\xf6+\xbb?\xb3#\xce=\xf1\xc9\x94?\x02\x97\xd4X\xec\xed\x92\xbf\x99\xb4;o\xbe\xb3~?\xc2\xba\x1f\x9c\x90b:\xbf251<Q\x99\'@\xf4\xc6u\x03\xb0w\x93?\xca`\x16\xc5\x94\xc2V@\xc7\x93V\xd2q-\xd1\xbfs\xc9\xc3\x18\xb9\x04\xb1\xbf\xae\xaf\xf8\xaa8\x03\xd2>w\x92\xc4J\xef\xe3\xc7?\x9aN\x92\x0e\xd3m\x81\xbfCb\x99d\xfaH @\x1cF\x12`\x91\xbd3@H\x98\xb10\x02\x92\xf7?\xe5S\xed\x08{\x0e\xd0\xbf\x12X\xebK\x00\xa3\x10@\x9b\xbe^A\x85\xe2\xae?2\x151PY\xdf\xfe\xbfhX\x85I^\xe6R\xbf\x10>z\xf0\x88\x14\x03@\x8f\xdf.\x1aU\xe1\'\xc0[\xaa\x96\x82\x92\x00S@\xf5cU\x936\xd0\xc7?\x93\xcf\xcd^\xe7\x8bO\xc0 \xdd>\x8a?\xc3\r@\x95\xb2\nw\x85BT@n\xd4\xba\xdd\xbb\xe6\x05@\xd8\xfc*\x00\xd0\xb5\x1f@\xf5(\x9c\x12\xe8\xfcb@\x81n\xf1\x03z\xe5%\xc0\x1c^*\xc3<\x06\xea?@\xc2B\xcc\xa8\x04\xd2\xbf\x8eQ!\xa3\xbdm;@\xb1\xdb?\xaa\x9d\xcc#@\xe9x\xf57V\\\x01\xc0\xa4\x94G~\t\x03\xff?<\xadh\x91\xa8x\x07\xc0~OF\xfeH~/\xc0=\xf7_\xac\x0f\xad\xc4?4Z\xc9 \xb5\xb1@\xc0\xe5x\x89:\xd3\xed\'\xc0P\x0e\xc7x\xfa\xc2\xfb?\xf8D==\xf1!\xd8\xbf\x0c\xc7\xb0\x00\xde\xd1\x1e@\xef\xe97tft@@\x81\x10 <\x02\xcaW@\x7f\x8bH\xc8Z\xe7\xc7?\x98\x89\xd0\xbbc\xbc6@\xe3\xa0q<k\xa8\xe6?\x00\x00\x00\x00\x00\x80v\xc0X\xcd\xf8\xb9\x0fb\xc0?H\xcd\x93,r\xac\x96?\x90\xf2g\xb6\xfb\'\x92\xbf\x9bn\xf2\x16\x0e\xbc<?\xc4vA\xf0\xa6\x06W?\x10[u\xa4\x91\x1ek@\xe9\xbb\x8d!\x84\x165@F\xf3\xe5D\xf58a\xc0 \xea\x9c\x98\xc5\xa8\xc9?\nc\xfe\x0c\xf6==\xc0\xbe}\x01u\xeb\x9d\x19\xc0W\x98g\xd7$\xa3W\xc0\x00\x00\x00\x00\x00\x00\x10@\xd9\xff\xa5yZ\xf0g\xbf\xc3#\xb7\xd1\x13\xe7\xd2\xbf\x0f\t\xcdHKl\xa6\xbf\x0e6c\x19\xa3;\xe6\xbe\t\xb4\xb9\xfb\xa6\xf6d@\xc1\x9e^4\t~\x0c\xc0\xf2\x9c\x15\xdb\x14_Y\xc0\xd39\xb7\xdbmj\xee\xbf\x92\n\x02a\xfedd@\xae\xa4\x89)ml\x15\xc0\x1d}OU\x18\xf6U\xc0\x00\x00\x00\x00\x00\x00\x10@\x92\x1c\xa5\x07Kb3@CFe\xfax\xef#\xc0\xf4\xa5\x83\x92\xab\xe7\x19\xc0\xc2^\x98\r\xa8 \xf8? A#~J\xa4\xb8\xbf2\xcc\xf7I\xa5#\x1f@\x00\x00\x00\x00\x00\x80v\xc0\x16%\xa1\xe2M\xcb\x0f@\xe3N\xce(\x13|5@\xe0\x96\x04\re\xf42\xc0\xb2\x8b\xe0i\xc6\xb7=\xc0\x00\x00\x00\x00\x00\x00\x10@\x0c\xa3i\xc8fO!\xc0\xba1\xee\xb8\x89\x7f\xd7\xbf"c\xbaU[\x99T@f\xf1\x8d!-q\xd1\xbf\xd4\xf3\x03\x82W\xa1\xa8\xbf\x8a\xc5\xccnv\xb0*?\x8aE\xaa\rEwp\xbf\xf4\xc2\xb7\x1d_\x1e\xfd>\xc5\xadV\xf6\xda\'$@\xb1\x0f\xc2J\x07K\xe8?\xa7\n\x03_\x99k%@\xa6\xd5\xf8\xd8\xf3\x82\xbf\xbf\x87\xeb\xfc\rs\xc3\xe4\xbfn\xd9\x91h)\x1c\xbc?\xae\x04\x14\x17)@\xf3?\xb9\x1d\x16\xbd\x81|\xa7?\xa8bR\x8c]\x1f\xca?\x86Nd\x04]3\x17@@\x18\x11@\x81\xa9\xda\xbf\x98\xb7D\xb6\x07\xb2\xbd?/\x0f\xf3\x9b{\xa9d\xc0t\x08\x1dl\xc8\nJ@x\xaa\xd6\xb6jrL@\x92\x9f\n\xab\x11\x80\xf6\xbf\xf8]\x85\\X\xa3&\xc0l\x98\xb4T\x0c"\xbe?\x08\xe9\x80<\xa0\x93\x11\xc0w\xaa\xb1G\x12\xd8\x8d?\xf9x6\xacz\x9e\xb8?O\x8b\x00|\xcbn\'?\x8at}[DP\x8c\xbfC\xbb\xe5/\xfeE\xb6\xbe\xf1\xbd\xf7h\xdbP/\xc0{\x01\xb4\xbeJ52@`\xb4}\xb0)kc@\x0c\xc3\xfd$nx\x86?@\n#C\x0bq\x18\xc0a\xb0&`\xa4-\x12@\x03}\xc9\x08U\x16t\xc0\xb4Q\xdd\xcb\x8a\xca\xda\xbf\x14-\x92\x80\x8bL"@\x9b\xa7\xf0~u`\xed?\x9d\xca\x93\x06\x17\x12\xc6?C4\xe3F\xc3X-\xbf\x99\xe7\x0f\xe9\xcb\xabC@5S\x10\xbea\x85H@(\xb9u\x06\'\xf02\xc0\xe4W\r\xc0\x9fh\xdd\xbf}\x8d\xb4?\x88\t\x02@<\xf6\x99\xf0\xba\x9b6\xc0\x80)\xa4\xaa\x94\xbd\xb1\xbf\xccqF\xcc\x0bB\xb9?\xa07\xe9h\xebpq\xc0e\x9b\xb5\xc0\xa0A\x11@h \x81M6\x85 \xc0\xd0\xbf{\xcc\xed\x9e\x8d\xbf\x00\x00\x00\x00\x00\x80v@\x1d\xce\xbd\xe0\x8c\rq\xc0n\x99\xb3\x1e\t\xa3_@L\xb1\xd7TwO\xd9?KM\xf4\xcb\xfa\x998@\xcb\xf7\x11\x8a\x9d\xe0A@\xc8\xbc\xc3,\x0f\x17Y\xc0\x9a9;\xe2\x16\xb0\xfc?,\x04\xbf$Q\xa28\xc0\xb1\xfa\xf7\xe0\xbdu$@o\x87\x93\xaf\xf9\xdeO@\xa38\x98\xca\xf3\xd9\xb1?9R\xeb\x8b4u\xb6?Q\x13D\x17\xee\xd5\xa2\xbfl\x14\x85u\xbfV\x84\xbfv\xe5\x0e\xbf\xef\xb4I?\xaa\xb2\xb8v\t\r\xb5?\xf4\xdc\xfc\xf2\x9fB\xa7\xbf\x9f\xec%:\x83\xcb\x96?*\x06\xe3\xa5.\xb3e?\xe1\xb5v\xbb\x08"`@m\xfa\x99\xb0WCQ\xc0J\x0c5\xb6#dv\xc0s\xdb\xed\x91\xbb}\xf7\xbf\x00\x00\x00\x00\x00\x80v@`\x1f\xfa\x06\x8f\xa3\xfe\xbf\x88C\xa1\x19\x13(p\xc0\x9d\xd9\xaa\xeca\x02\xfe?/\xa9\xabo\xc8\x1cN\xc0\xd1\x15\x19\x1d#\x12\x02\xc0N\x19\xb0G\x8e\xacN@\x00\x00\x00\x00\x00\x00\x10\xc0HL\xb8\xd3\\\x99\xf6\xbf\xa9\\\x18\x9f\xb4\x91\x10\xc0XI\xd6o\xe9\xc4\xd9?\xe8\x92\xdaT\x8d\xf6Q?\x16\x8d \x9c\xd2\xbb\xa0\xbf\xadY\x16 R<\xb8\xbfS\x9c\xfc\xcdU\x16\xcd?9\x98\x08<\x84D@?\x11\xecW\x16\xa8\xc5/@v\xe9y\x83\xa8\x96\x1d@b\x9aF\x99\xd4\x80\x1b@\x04H\xcd\x85\x00\xfdi?t\t\xef\x96F-\x10@\xd7\xe5\xfe^\x84?\x0e@\x9eG\xdb\xaf#\xc3\xd5\xbf\x96o^\xc6\x9cv\xd2\xbfj0y\xbd\xeb\xfa0@\xe5\xf6\x8f\xf8_\xb1\'\xc0\x86\'u<i&N@\xd61\xb8\x14\x15\xed\xf1\xbf\x03\xc1[\xd8\xa4K\x12@Ev@\x94\xa0a#@vG\x14\xda\x91(t\xc0\xdc\xa5\xc9^\xe7\x0f\x91\xbf\xf5\xf8\xc0\x91\xd32\x10@v\xe8\x1e\xa3\xd3\xc8>@L\xc0\xc2~`\xd4 \xc0c\xad{\xc3 d\xe1?\xc3\x0eL\x89.\x8e\x15@8\xe2y\x1f!Q\xdb\xbf\xba\xd1H\x8e\x15\x85\x03@\xd2\xcdY\x8b%l\x00\xc0'
tbsS'current_val'
p18
g3
(g4
(I0
tS'b'
tRp19
(I1
(I80
tg7
I00
S'\x10\xc8\xcf\x02\x96\x80\x14@zys\xdb\x07\x87FAu\xa0\xaa\xe7\x16Q\x1b\xc0`\xfd\xf3\x19V\x06\x10@C\xbb\x17\x8d\x90\x10C@\x88T\x13mG0F@\x8a\x83\x87z\xba\x90\x15\xc0\xb7=\xa1s\xf0\x8cEA\xb0\x08\xef\xb8\xa83\x19\xc0\x7f\x9bt\xf4\x16\xe3E@:\x9a}\x8e\x05\xe0y@Y\xdf\xe9\xab\xde\xb3D@\xe1Q\x03QAG\x16@\x0e\x18&`\x88\xad\xc8@\xc4\xc1\xb8\x00\x96\xacE@*k7\xea\xfdh1@\xc8=\x92\xeb\xb6\xf6\xfc\xbf\xf9\xcc\x06\x81\xd4j\t@<\xfcT\xda\x8e\x06E@\xec\xc3\xcb80\xa5\x1b@\xca\x97a\xb7\xcd\xf8\x13\xc0/JI!\x0bC\x1a\xc0G\x06\xac\xddS&\x1a\xc0\xe8\x9fj\x00\xa8\x9d-@ocv\xdb\xdf\xbaI@D-\x04\xe6\xf2\xe1\x1b\xc0Cd\xe6I(\xf5A@\xff$\x8et\xaao\x1a\xc0\x1d^\xa9\xcc\x0c-\x1b\xc0h\xa5+\xf7z\xfa\x10\xc0\x1d\xf8\xecA\xe1\xf5\x14\xc0\x9c\x1ei1<\xf3\xbf@\x9c\x9ef\xc4\x96\xfc\x16\xc0\xcf\t`\xe5bQ\x10@\xd46\n\xf1\xb3\xd0D@\xf5\\X\xe6\\*u@\xa0\x9f\xdc+{\x86@@\xf2\x93uUMZ\x17\xc0\xc1l\x11\xb7W\x02!@~\xe8D\x06\xaeY\x1f@\x0f\x81\xae\xadF\xeaC@F\x05}\x9c\\U\x07\xc0YI\xb2IXVC@\xad\xaf\xae\xd6R+[@h\xb1?|V\xac\x00@*\x95d\xfb\xb4\xdb\x07@\x04\xf4gi}\xa8D@C\x04Ye\xd7^\xf7\xbf\x10\x8c\xf5\xe5n\x0fF@v3\xa2h6Jg@\x1a\xc1\xcb\x9a\xfdrA@\xdc:/\x85\xd1\x9f\x1a\xc0\xd7\xb0A\xe0\x0e\x1c\x1b\xc0!\xf2~6j\x81\x14\xc0\xce\xb8\xd6\'i\x10\x10\xc0\xd2i\xf0\xe4\n `@ O8\x98M\x92\x19@\xe2\xf2\x8f\xcf%\xd9\r\xc0\xddP\xf8\x82\xe02A@\xcb\x16\xd5\xbd+\x07D@\'\xea\xa0\xb8A\x8f\x16@\xc2\xf9\x80c\x91\xafC@\xe0\xda\xe3z\xc7\x03\x11@\x1f\xe5\xa7\xdc\xd0\xdbB@\xf1[\x07\xf4V\x07D@\x1e\x94o\x1f6F$@\xf5m\xd1\xc1\x93\x9fA@\nTW0\x14\x8d\x1b\xc0\x9a\xbb\'\xf4\xe2\x86\x1b\xc0\xf9"Nu\x90\xc6H@\x17xY\xa9R\xd3C@Y7|u\xa5_C@\xa4\x19B\xd2\xaf\xd7\x19\xc0\xa4\ry\x01^d\x1b\xc0\xd4\x1eG\x07\x0f;\x18\xc0\xe6\xff2\x93w7\x19\xc0b\x9c`k\xb5\x99A@\xd5\xd3t\x94\x8bXE@\xab0d\xd1\xec\x11"@\x9a\x8b\x1cwV[=@'
tbs.