(dp1
S'part_max_val'
p2
cnumpy.core.multiarray
_reconstruct
p3
(cnumpy
ndarray
p4
(I0
tS'b'
tRp5
(I1
(I60
tcnumpy
dtype
p6
(S'f8'
I0
I1
tRp7
(I3
S'<'
NNNI-1
I-1
I0
tbI00
S"0\\\x95\xc4\x07\xe1\x07@\xd0\xdb\r\x96;\xe1\x07@\xe0\xe6 >\r\x05\x00@\xe0\xe6 >\r\x05\x00@\xe0\xe6 >\r\x05\x00@\x80\xf5\xfbj\xdb\xcf\x1c@\x00\x00\x00\x00\x00\x00\x00=\x00\x00\x00\x00\x00\x00\x00=\x00\x00\x00\x00\x00\x00\x00=\x00\x00\x00\x00\x00\x00\x00=\x00\x00\x00\x00\x00\x00\x00=\x00\x00\x00\x00\x00\x00\x00=\x00\x00\x00\x00\x00\x00\x00=\x00\x00\x00\x00\x00\x00\x00=\x00\x00\x00\x00\x00\x00\x00=\x00\x00\x00\x00\x00\x00\x00=P\xb9\xc4o\xf2\xd2\x08@\xa03\x9bI\x07\xe1\x07@\xa03\x9bI\x07\xe1\x07@\xa03\x9bI\x07\xe1\x07@\xa03\x9bI\x07\xe1\x07@\xa03\x9bI\x07\xe1\x07@ 0\xe0WuK\x08@\x00\x00\x00\x00\x00\x00\x00\x00\x00\x00\x00\x00\x00\x00\x00\x00\x00\x00\x00\x00\x00\x00\x00\x00\x00\x00\x00\x00\x00\x00\x00\x00\x00\x00\x00\x00\x00\x00\x00\x00\x00\x00\x00\x00\x00\x00\x00\x00\x00\x00\x00\x00\x00\x00\x00\x00\x00\x00\x00\x00\x00\x00\x00\x00\x00\x00\x00\x00\x00\x00\x00\x00\x00\x00\x00\x00\x00\x00\x00\x00\x00\x00\x00\x00\x00\x00\x00\x00\x00\x00\x00\x00\x00\x00\x00\x00@\xb66\x06\x1c'\xfa?\x80\x8b\xa6\xb8\x18\\\xf0?\x00\xae\xda\xfc\x14\xe1\x07@\xc0cb`\xb4\xd6\xff?\xc0cb`\xb4\xd6\xff?\xc0cb`\xb4\xd6\xff?\xc0cb`\xb4\xd6\xff?\xc0cb`\xb4\xd6\xff?\xc0cb`\xb4\xd6\xff?\xc0cb`\xb4\xd6\xff?\xc0cb`\xb4\xd6\xff?\xc0cb`\xb4\xd6\xff?\xc0cb`\xb4\xd6\xff?\xc0cb`\xb4\xd6\xff?\xc0cb`\xb4\xd6\xff?\xa0\xb7\xfdk\xc1\x1f\r@\x00\xc1[?\xc9\xd6\xff?@\xf3&?\xc9\xd6\xff?\x00i\x9a>\xc9\xd6\xff?\x00\xfb\xf9>\xc9\xd6\xff?@@\xfa@\xc9\xd6\xff?\xc0V\xc5Y\xc9\xd6\xff?\x80\xeb\xc5\xb0\xf7\xd7\xef?\x80\x12\xa5;\xf1\xd7\xef?\x00\xf3\xe2\xbb5\xd8\xef?"
tbsS'repeat'
p8
I0
sS'part_pos'
p9
g3
(g4
(I0
tS'b'
tRp10
(I1
(I60
I5
tg7
I00
S'~\xef\xb5\x9d\xd5\xeb\xe4?VO\xb4s\xfeU\x11\xbf\xe62\xb3w\x92e\xd0\xbe\x85\xc6c\xbe\xb4\xd6\xef?\x18d\xe4\xad\x11\xfb\xd4\xbf\x83O\xffz\xc0\xe6\xde?\\\x83l\xff^\xa1\xe8\xbf\xb05O\x8at\x19\xdb\xbfp\x12\xf2\xfbW\x9c\xa1?\x80\x10\xe2\xa4\x93\xe9\xcb\xbf\xaaM4\x9e\xdd\xdbH?O\xb2>.\t\xd8\xef\xbf\x99\xe38\x02U\xd0\xef\xbf\x01!\x0e\xd0\xfc!\x80?\\\x13\xcf\x83\x11H\x13?\xaaM4\x9e\xdd\xdbH?O\xb2>.\t\xd8\xef\xbf\x99\xe38\x02U\xd0\xef\xbf\x01!\x0e\xd0\xfc!\x80?\\\x13\xcf\x83\x11H\x13?\xaaM4\x9e\xdd\xdbH?O\xb2>.\t\xd8\xef\xbf\x99\xe38\x02U\xd0\xef\xbf\x01!\x0e\xd0\xfc!\x80?\\\x13\xcf\x83\x11H\x13?\x16:\xec-\xc2\xad6?\x1c\xce\xf2H\xd9\xc6\xe5?v\xab^\x10\x15e\xf1?\xf8\tFm\xc10\xb9?\r&_c\x13\xce\xf5?\x18\xd7o"+k:\xbe\xdc2\xa8jU\x01 >7\xd8ujd\xaf\xe4\xbd@E\xdcU\x9d\xb6/>"I\x02w\x1b\x1a(\xbem\x07\xd7N+k:\xbe\xf2\xca\xfa\x82)\x08 >>\xe6D\x89\x06\xb2\xe4\xbd\x0f\xe3\x10\xd2n\x9f/>I@\x8ev\xee#(\xbe\xf2\x92\xd2\x92,k:\xbe\\\x19}\xc8\xc1# >\xab\xb6\x87c4\xe6\xe4\xbd\x80\xa8\xf0\x9b\xb8J/>x\xab\xcb\xfc\x93\xf0\'\xbeG\n\xaew(k:\xbe\xa5A\x12\xd8w~ >\x92\xc8\x94\x01=N\xe5\xbd\xd9o\x08\x8af\xfe->X\x91\x1f\xfc\xa7\xf8\'\xbe\xd2\xaf\xb7\xe3\x15k:\xbeQ\x87\xc4Q\xa4Q >]0\x901\xef\x12\xe1\xbd\x84\xe4\x1fw\x84\x7f0>4\n\x8b\x99)`(\xbe\x8d\xd4\xa7\x97\xf9j:\xbe\x17\xd9\xa0\xd1\xf5\x9a">\xb6\x7f\x12j\xf1\xb1\xd8\xbd\xbb\xabH~\xd4#0>\xbd"$\x1eW\x1d)\xbe\x14\xa6.\xbd,k:\xbe\xa6_aT\x0b\xda\x16>f\x91\xae\x0c\x99\x97\xe1\xbd\x07\xff\xfd-e\n >\x87x\x07\xa3\xef\xcf+\xbeo\x19\xf6C\xc8k:\xbe*\x01x\xe1\n\xf6\x1b>8<\x9e\xdc[\xe1\xeb\xbd\xc2\x81~\xfa\xc2\xf6\x05>8RNc\xc1Q(\xbe\x1b\xcfk\xf9\xd8k:\xbe_\xc0\x05\xf3.\x85&>\xdc\x9f\x83\x9e\xfb\xdd\xf0\xbd\xe6\x12"\xbe\x11\xa2\x05>\xe3q-p\xd0\x88!\xbeZ\xcf\xeb\xd6\xadk:\xbe\xacB-w\xfe@(>\x1c\xb2\xb6\xa8!\xcf\xe2\xbd\xcaj\x88\xc1\x08+\x1f>s$\x04\'\xb5\xb9#\xbe\xac-(\x19\xedd\xcf\xbf\xa5\x15\x1d\xa8xi\xc4?\x1c\x93\xf3q\x80\xa5\t?\x1d\xc5\x17\x02+r\xf1?4\xbc\x8a<\xe7\'>?maVn\xaf\xd6\xef\xbf6NLj\xb5\xd6\xef?\t\x1d\x10\x8e\x14\xb7\xdb\xbe\x9d\x90$U\xb3\xd6\xef?\xeb\xa0J\xbd\xfd\xa4\xb2>maVn\xaf\xd6\xef\xbf6NLj\xb5\xd6\xef?\t\x1d\x10\x8e\x14\xb7\xdb\xbe\x9d\x90$U\xb3\xd6\xef?\xeb\xa0J\xbd\xfd\xa4\xb2>maVn\xaf\xd6\xef\xbf6NLj\xb5\xd6\xef?\t\x1d\x10\x8e\x14\xb7\xdb\xbe\x9d\x90$U\xb3\xd6\xef?\xeb\xa0J\xbd\xfd\xa4\xb2>maVn\xaf\xd6\xef\xbf6NLj\xb5\xd6\xef?\t\x1d\x10\x8e\x14\xb7\xdb\xbe\x9d\x90$U\xb3\xd6\xef?\xeb\xa0J\xbd\xfd\xa4\xb2>maVn\xaf\xd6\xef\xbf6NLj\xb5\xd6\xef?\t\x1d\x10\x8e\x14\xb7\xdb\xbe\x9d\x90$U\xb3\xd6\xef?\xeb\xa0J\xbd\xfd\xa4\xb2>k^5\xbe?j\xda\xbfkU\x03,$\x94\xe5?\xe6x>\xf7,"\x12\xbf\xf6\x07\x84\xfe%.u?\x9c\xbc)\xccZ\xf5\xef\xbf\t\x81\xe5\x94-\xa6\'\xbeS\x11\xb3\xf3\x88\xc6\x14>\xb9\r\x1d\'\xbf+3\xbe`\x93v/\x9es\xe1=\xd0uQF\xfa\x00\t>\t\x81\xe5\x94-\xa6\'\xbeS\x11\xb3\xf3\x88\xc6\x14>\xb9\r\x1d\'\xbf+3\xbe`\x93v/\x9es\xe1=\xd0uQF\xfa\x00\t>\t\x81\xe5\x94-\xa6\'\xbeS\x11\xb3\xf3\x88\xc6\x14>\xb9\r\x1d\'\xbf+3\xbe`\x93v/\x9es\xe1=\xd0uQF\xfa\x00\t>\t\x81\xe5\x94-\xa6\'\xbeS\x11\xb3\xf3\x88\xc6\x14>\xb9\r\x1d\'\xbf+3\xbe`\x93v/\x9es\xe1=\xd0uQF\xfa\x00\t>\t\x81\xe5\x94-\xa6\'\xbeS\x11\xb3\xf3\x88\xc6\x14>\xb9\r\x1d\'\xbf+3\xbe`\x93v/\x9es\xe1=\xd0uQF\xfa\x00\t>\t\x81\xe5\x94-\xa6\'\xbeS\x11\xb3\xf3\x88\xc6\x14>\xb9\r\x1d\'\xbf+3\xbe`\x93v/\x9es\xe1=\xd0uQF\xfa\x00\t>\t\x81\xe5\x94-\xa6\'\xbeS\x11\xb3\xf3\x88\xc6\x14>\xb9\r\x1d\'\xbf+3\xbe`\x93v/\x9es\xe1=\xd0uQF\xfa\x00\t>\t\x81\xe5\x94-\xa6\'\xbeS\x11\xb3\xf3\x88\xc6\x14>\xb9\r\x1d\'\xbf+3\xbe`\x93v/\x9es\xe1=\xd0uQF\xfa\x00\t>\t\x81\xe5\x94-\xa6\'\xbeS\x11\xb3\xf3\x88\xc6\x14>\xb9\r\x1d\'\xbf+3\xbe`\x93v/\x9es\xe1=\xd0uQF\xfa\x00\t>\t\x81\xe5\x94-\xa6\'\xbeS\x11\xb3\xf3\x88\xc6\x14>\xb9\r\x1d\'\xbf+3\xbe`\x93v/\x9es\xe1=\xd0uQF\xfa\x00\t>\t\x81\xe5\x94-\xa6\'\xbeS\x11\xb3\xf3\x88\xc6\x14>\xb9\r\x1d\'\xbf+3\xbe`\x93v/\x9es\xe1=\xd0uQF\xfa\x00\t>\t\x81\xe5\x94-\xa6\'\xbeS\x11\xb3\xf3\x88\xc6\x14>\xb9\r\x1d\'\xbf+3\xbe`\x93v/\x9es\xe1=\xd0uQF\xfa\x00\t>@\xcb\x98\xc1\x0eRB\xbf\x9a]E\x0ff2\xe6?\xe9j\x9c\x1f\x19y\xbd\xbf\x9a\xc8w\xe1`@\xb0>6\x14S\xaf\x0f\x1f\x90>\xba\xf2\xc6\xe7\xc0\x88`\xbf-Z\x91\xd1&\x07\xf0?\x08\xe0\x1a\xca\xfaG\x83\xbf!&P\xf0\xc3\'\xee>>\xa2\xb1Vw\xe0\xee>\xf1E\xb7\x91\x99a\xf1\xbf\xec\x01m\x86\'G\xf0?X\xb0v]\x8ey\xf0\xbf@\x08r\xf4E\xd9S\xbf\x85\x1f\xe7\xb0uS\xf9>\x8b;\x06R\xa4\xc7\x00>\xf1\x13\xdb\xe16|!\xbe\xa3\xf7\xfd\x7f\xb3\xd6\xef?\x84\xbb\'\x81\xb3\xd6\xef?n\x04\xde\xcb9\xb6,\xbe\x8b;\x06R\xa4\xc7\x00>\xf1\x13\xdb\xe16|!\xbe\xa3\xf7\xfd\x7f\xb3\xd6\xef?\x84\xbb\'\x81\xb3\xd6\xef?n\x04\xde\xcb9\xb6,\xbe\x8b;\x06R\xa4\xc7\x00>\xf1\x13\xdb\xe16|!\xbe\xa3\xf7\xfd\x7f\xb3\xd6\xef?\x84\xbb\'\x81\xb3\xd6\xef?n\x04\xde\xcb9\xb6,\xbe\x8b;\x06R\xa4\xc7\x00>\xf1\x13\xdb\xe16|!\xbe\xa3\xf7\xfd\x7f\xb3\xd6\xef?\x84\xbb\'\x81\xb3\xd6\xef?n\x04\xde\xcb9\xb6,\xbe\x8b;\x06R\xa4\xc7\x00>\xf1\x13\xdb\xe16|!\xbe\xa3\xf7\xfd\x7f\xb3\xd6\xef?\x84\xbb\'\x81\xb3\xd6\xef?n\x04\xde\xcb9\xb6,\xbe\x8b;\x06R\xa4\xc7\x00>\xf1\x13\xdb\xe16|!\xbe\xa3\xf7\xfd\x7f\xb3\xd6\xef?\x84\xbb\'\x81\xb3\xd6\xef?n\x04\xde\xcb9\xb6,\xbe\x8b;\x06R\xa4\xc7\x00>\xf1\x13\xdb\xe16|!\xbe\xa3\xf7\xfd\x7f\xb3\xd6\xef?\x84\xbb\'\x81\xb3\xd6\xef?n\x04\xde\xcb9\xb6,\xbe\x8b;\x06R\xa4\xc7\x00>\xf1\x13\xdb\xe16|!\xbe\xa3\xf7\xfd\x7f\xb3\xd6\xef?\x84\xbb\'\x81\xb3\xd6\xef?n\x04\xde\xcb9\xb6,\xbe\x8b;\x06R\xa4\xc7\x00>\xf1\x13\xdb\xe16|!\xbe\xa3\xf7\xfd\x7f\xb3\xd6\xef?\x84\xbb\'\x81\xb3\xd6\xef?n\x04\xde\xcb9\xb6,\xbe\x8b;\x06R\xa4\xc7\x00>\xf1\x13\xdb\xe16|!\xbe\xa3\xf7\xfd\x7f\xb3\xd6\xef?\x84\xbb\'\x81\xb3\xd6\xef?n\x04\xde\xcb9\xb6,\xbe\x8b;\x06R\xa4\xc7\x00>\xf1\x13\xdb\xe16|!\xbe\xa3\xf7\xfd\x7f\xb3\xd6\xef?\x84\xbb\'\x81\xb3\xd6\xef?n\x04\xde\xcb9\xb6,\xbe\x8b;\x06R\xa4\xc7\x00>\xf1\x13\xdb\xe16|!\xbe\xa3\xf7\xfd\x7f\xb3\xd6\xef?\x84\xbb\'\x81\xb3\xd6\xef?n\x04\xde\xcb9\xb6,\xbe\xec\xb9\xc3\x1c\xe3j\xa8\xbf6\x9a\xf5\x8f\x11\xb8\xaf?\xe1\x82\x17\xb9\x94\xaa\xf0?\xc7\xe0O%i\x84\xef?~\xc3\xb6Tr\x00V\xbf\x85u\x8b\xec\xcc\x12,\xbf2\x88\x0c9\x1e\xc4\xe4>\x181[\x92\xa5\xcb,\xbf\xf8\x07\xc7o\xa7\xd6\xef?\x05\x8e\xd3=\x10\xd6\xef?\x9b\x9d1\x93\xcd\x12,\xbfG\xde\xfa\xcf\xb1\xc2\xe4>L\xd6\xd1\xa3X\xcb,\xbfI?%k\xa7\xd6\xef?\xb0\xcb\xe2=\x10\xd6\xef?WXe\xed\xba\x12,\xbf4\xb5\xa6\xc4\xec\xcc\xe4>\x11\xf29\xdc\x9c\xca,\xbf\xa7\x9d\xdat\xa7\xd6\xef?/o\xb1=\x10\xd6\xef?\x8f\xdbN*\xab\x12,\xbf\xe2\xe8\xe4du\xc3\xe4>])\x85\'P\xcb,\xbf\xd2\xad\xf0\x96\xa7\xd6\xef?;\x80\xba>\x10\xd6\xef?\x1a\xd7\x1b\xe6\x10\x13,\xbfN^\xc2T\x86\xd4\xe4>(\xd1\xe4_\xb4\xcd,\xbf\xbf\xb32T\xa7\xd6\xef?\xe0L\xbfA\x10\xd6\xef?\xae\xc1:,\xb7\xfeF?\xe7se7\xe8\x1b\xfd\xbe\xc1\xd6A\nS6\x1e\xbfn\xe2>\xe1\xa6\xd6\xef?\x1f4E\x91\xa7*\xcb?\xa9 \xd3\xd2\xe7rL?b\xe14\xa5\x8bV\x11\xbf\xc85\x95\xf1\xb7\x0c\xcb>\x8b\x0f\xf2\x1b\xb7\xd6\xef?\xe8*\x08\x8a\xbcK\'?8\xce\xa1\x8e&\xb8L?W\xf8\xf4\x01>*\x11\xbf\x07\x0fK\x02w\xbb\xe6>\xd0\xf05=\xb7\xd6\xef?\xf4E\x16Z*\xb0E\xbfi\xafIv3\x10L?\xbe\xbd_\xa4\xa8\n\x11\xbf\'\xc9\xe7\x85\x19\xee\xdc>\xd6\xb3,;\xb7\xd6\xef?`\x83\x10\xb9\x96s<?'
tbsS'repellers'
p11
(lp12
sS'part_max_pos'
p13
g3
(g4
(I0
tS'b'
tRp14
(I1
(I60
I5
tg7
I00
S'N`\xa8\xb4\xd1\xd6\xef?v\x86\xaf\xd5\xb2\x1c\x11\xbf\xfd\x05.\x99\x0e\x88\xea>8\xd4NV\xb3\xd6\xef?\x91H\xed\xa4\xc0\xd6\xef\xbf\xdd/oU\x97\xd6\xef?\xc0t\x9b\xe5 R\xd2>$v\xc0e\xd2\xe1\x11?\x97\xe6\x96\x18\x19\xd1\xef?\xc2\xeb\x88k!\xd8\xef\xbf\xaaM4\x9e\xdd\xdbH?O\xb2>.\t\xd8\xef\xbf\x99\xe38\x02U\xd0\xef\xbf\x01!\x0e\xd0\xfc!\x80?\\\x13\xcf\x83\x11H\x13?\xaaM4\x9e\xdd\xdbH?O\xb2>.\t\xd8\xef\xbf\x99\xe38\x02U\xd0\xef\xbf\x01!\x0e\xd0\xfc!\x80?\\\x13\xcf\x83\x11H\x13?\xaaM4\x9e\xdd\xdbH?O\xb2>.\t\xd8\xef\xbf\x99\xe38\x02U\xd0\xef\xbf\x01!\x0e\xd0\xfc!\x80?\\\x13\xcf\x83\x11H\x13?\xc0,\x16\xd5\'\xc0E?b\x0f\x88"\xaaw\xf0?\xc5\x12\xdc\xac\xd4\xc3\xef?\xa8\xdc\xaf\xc7\x01\xf2\xef\xbf\x98Y\xc8\xbc\xd1\xc7\xff?\x18\xd7o"+k:\xbe\xdc2\xa8jU\x01 >7\xd8ujd\xaf\xe4\xbd@E\xdcU\x9d\xb6/>"I\x02w\x1b\x1a(\xbem\x07\xd7N+k:\xbe\xf2\xca\xfa\x82)\x08 >>\xe6D\x89\x06\xb2\xe4\xbd\x0f\xe3\x10\xd2n\x9f/>I@\x8ev\xee#(\xbe\xf2\x92\xd2\x92,k:\xbe\\\x19}\xc8\xc1# >\xab\xb6\x87c4\xe6\xe4\xbd\x80\xa8\xf0\x9b\xb8J/>x\xab\xcb\xfc\x93\xf0\'\xbeG\n\xaew(k:\xbe\xa5A\x12\xd8w~ >\x92\xc8\x94\x01=N\xe5\xbd\xd9o\x08\x8af\xfe->X\x91\x1f\xfc\xa7\xf8\'\xbe\xbbq\xa5\xa5\x0bk:\xbe\xd0\x9d\xba\x8eC\xad$>\xaa\x94nlzu\xe0\xbd\x8dZ\x80Y\xfa~/>F\xb8\xa7\xed\xc6\xc5(\xbe\xa8\x9b33.k:\xbeDl\xe2M\xf4d\x19>:ar2\x8a\xa5\xdc\xbd\x8e\x94\x05S\x96\xa8(>\xcf%G\xd2\xdc\xfc)\xbe\x14\xa6.\xbd,k:\xbe\xa6_aT\x0b\xda\x16>f\x91\xae\x0c\x99\x97\xe1\xbd\x07\xff\xfd-e\n >\x87x\x07\xa3\xef\xcf+\xbeo\x19\xf6C\xc8k:\xbe*\x01x\xe1\n\xf6\x1b>8<\x9e\xdc[\xe1\xeb\xbd\xc2\x81~\xfa\xc2\xf6\x05>8RNc\xc1Q(\xbe\x1b\xcfk\xf9\xd8k:\xbe_\xc0\x05\xf3.\x85&>\xdc\x9f\x83\x9e\xfb\xdd\xf0\xbd\xe6\x12"\xbe\x11\xa2\x05>\xe3q-p\xd0\x88!\xbeZ\xcf\xeb\xd6\xadk:\xbe\xacB-w\xfe@(>\x1c\xb2\xb6\xa8!\xcf\xe2\xbd\xcaj\x88\xc1\x08+\x1f>s$\x04\'\xb5\xb9#\xbeG\xce2\xae\xb8\xd3\xef\xbf\xb2\xcf&\xbe&\x93\xef?\xa8\xfb\xf9\xff\xff\xdc&?\xb5)\xc6fmI\xf0?\xb09\x87\xac\x812<?maVn\xaf\xd6\xef\xbf6NLj\xb5\xd6\xef?\t\x1d\x10\x8e\x14\xb7\xdb\xbe\x9d\x90$U\xb3\xd6\xef?\xeb\xa0J\xbd\xfd\xa4\xb2>maVn\xaf\xd6\xef\xbf6NLj\xb5\xd6\xef?\t\x1d\x10\x8e\x14\xb7\xdb\xbe\x9d\x90$U\xb3\xd6\xef?\xeb\xa0J\xbd\xfd\xa4\xb2>maVn\xaf\xd6\xef\xbf6NLj\xb5\xd6\xef?\t\x1d\x10\x8e\x14\xb7\xdb\xbe\x9d\x90$U\xb3\xd6\xef?\xeb\xa0J\xbd\xfd\xa4\xb2>maVn\xaf\xd6\xef\xbf6NLj\xb5\xd6\xef?\t\x1d\x10\x8e\x14\xb7\xdb\xbe\x9d\x90$U\xb3\xd6\xef?\xeb\xa0J\xbd\xfd\xa4\xb2>maVn\xaf\xd6\xef\xbf6NLj\xb5\xd6\xef?\t\x1d\x10\x8e\x14\xb7\xdb\xbe\x9d\x90$U\xb3\xd6\xef?\xeb\xa0J\xbd\xfd\xa4\xb2>\xbb\xc6B\xf4\xc7\x0b\xf0\xbf\xb4@\x8a\x91\xe4\x1b\xf0?\x94i\xa8\xa3\xd4\xfe\x0b\xbf_9>\xe6x\x80z?t\x13\x91\x91\xed\xb4\xef\xbf\t\x81\xe5\x94-\xa6\'\xbeS\x11\xb3\xf3\x88\xc6\x14>\xb9\r\x1d\'\xbf+3\xbe`\x93v/\x9es\xe1=\xd0uQF\xfa\x00\t>\t\x81\xe5\x94-\xa6\'\xbeS\x11\xb3\xf3\x88\xc6\x14>\xb9\r\x1d\'\xbf+3\xbe`\x93v/\x9es\xe1=\xd0uQF\xfa\x00\t>\t\x81\xe5\x94-\xa6\'\xbeS\x11\xb3\xf3\x88\xc6\x14>\xb9\r\x1d\'\xbf+3\xbe`\x93v/\x9es\xe1=\xd0uQF\xfa\x00\t>\t\x81\xe5\x94-\xa6\'\xbeS\x11\xb3\xf3\x88\xc6\x14>\xb9\r\x1d\'\xbf+3\xbe`\x93v/\x9es\xe1=\xd0uQF\xfa\x00\t>\t\x81\xe5\x94-\xa6\'\xbeS\x11\xb3\xf3\x88\xc6\x14>\xb9\r\x1d\'\xbf+3\xbe`\x93v/\x9es\xe1=\xd0uQF\xfa\x00\t>\t\x81\xe5\x94-\xa6\'\xbeS\x11\xb3\xf3\x88\xc6\x14>\xb9\r\x1d\'\xbf+3\xbe`\x93v/\x9es\xe1=\xd0uQF\xfa\x00\t>\t\x81\xe5\x94-\xa6\'\xbeS\x11\xb3\xf3\x88\xc6\x14>\xb9\r\x1d\'\xbf+3\xbe`\x93v/\x9es\xe1=\xd0uQF\xfa\x00\t>\t\x81\xe5\x94-\xa6\'\xbeS\x11\xb3\xf3\x88\xc6\x14>\xb9\r\x1d\'\xbf+3\xbe`\x93v/\x9es\xe1=\xd0uQF\xfa\x00\t>\t\x81\xe5\x94-\xa6\'\xbeS\x11\xb3\xf3\x88\xc6\x14>\xb9\r\x1d\'\xbf+3\xbe`\x93v/\x9es\xe1=\xd0uQF\xfa\x00\t>\t\x81\xe5\x94-\xa6\'\xbeS\x11\xb3\xf3\x88\xc6\x14>\xb9\r\x1d\'\xbf+3\xbe`\x93v/\x9es\xe1=\xd0uQF\xfa\x00\t>\t\x81\xe5\x94-\xa6\'\xbeS\x11\xb3\xf3\x88\xc6\x14>\xb9\r\x1d\'\xbf+3\xbe`\x93v/\x9es\xe1=\xd0uQF\xfa\x00\t>\t\x81\xe5\x94-\xa6\'\xbeS\x11\xb3\xf3\x88\xc6\x14>\xb9\r\x1d\'\xbf+3\xbe`\x93v/\x9es\xe1=\xd0uQF\xfa\x00\t>\xb3"\xf4u\x98\x07\x83\xbf\xdfu\xec\xe7\xf4A\xf0?\x005\x98\xf9M\xad\xaa\xbf6\xde\x89\xc8Zd\xba>\x80\x86\x15P\x1f\xd7\x9d>\xba\xf2\xc6\xe7\xc0\x88`\xbf-Z\x91\xd1&\x07\xf0?\x08\xe0\x1a\xca\xfaG\x83\xbf!&P\xf0\xc3\'\xee>>\xa2\xb1Vw\xe0\xee>\xcaD\xe3Q\xb4\xd4\xef\xbf\x90\xe3\xd7\x9e\xd8\xd6\xef?U\xf81\x05\x89\xd4\xef\xbf\xb9^\x11\xbd\xf5h\xf5>\xab\x05\xc1\x1dW"\x06?\x8b;\x06R\xa4\xc7\x00>\xf1\x13\xdb\xe16|!\xbe\xa3\xf7\xfd\x7f\xb3\xd6\xef?\x84\xbb\'\x81\xb3\xd6\xef?n\x04\xde\xcb9\xb6,\xbe\x8b;\x06R\xa4\xc7\x00>\xf1\x13\xdb\xe16|!\xbe\xa3\xf7\xfd\x7f\xb3\xd6\xef?\x84\xbb\'\x81\xb3\xd6\xef?n\x04\xde\xcb9\xb6,\xbe\x8b;\x06R\xa4\xc7\x00>\xf1\x13\xdb\xe16|!\xbe\xa3\xf7\xfd\x7f\xb3\xd6\xef?\x84\xbb\'\x81\xb3\xd6\xef?n\x04\xde\xcb9\xb6,\xbe\x8b;\x06R\xa4\xc7\x00>\xf1\x13\xdb\xe16|!\xbe\xa3\xf7\xfd\x7f\xb3\xd6\xef?\x84\xbb\'\x81\xb3\xd6\xef?n\x04\xde\xcb9\xb6,\xbe\x8b;\x06R\xa4\xc7\x00>\xf1\x13\xdb\xe16|!\xbe\xa3\xf7\xfd\x7f\xb3\xd6\xef?\x84\xbb\'\x81\xb3\xd6\xef?n\x04\xde\xcb9\xb6,\xbe\x8b;\x06R\xa4\xc7\x00>\xf1\x13\xdb\xe16|!\xbe\xa3\xf7\xfd\x7f\xb3\xd6\xef?\x84\xbb\'\x81\xb3\xd6\xef?n\x04\xde\xcb9\xb6,\xbe\x8b;\x06R\xa4\xc7\x00>\xf1\x13\xdb\xe16|!\xbe\xa3\xf7\xfd\x7f\xb3\xd6\xef?\x84\xbb\'\x81\xb3\xd6\xef?n\x04\xde\xcb9\xb6,\xbe\x8b;\x06R\xa4\xc7\x00>\xf1\x13\xdb\xe16|!\xbe\xa3\xf7\xfd\x7f\xb3\xd6\xef?\x84\xbb\'\x81\xb3\xd6\xef?n\x04\xde\xcb9\xb6,\xbe\x8b;\x06R\xa4\xc7\x00>\xf1\x13\xdb\xe16|!\xbe\xa3\xf7\xfd\x7f\xb3\xd6\xef?\x84\xbb\'\x81\xb3\xd6\xef?n\x04\xde\xcb9\xb6,\xbe\x8b;\x06R\xa4\xc7\x00>\xf1\x13\xdb\xe16|!\xbe\xa3\xf7\xfd\x7f\xb3\xd6\xef?\x84\xbb\'\x81\xb3\xd6\xef?n\x04\xde\xcb9\xb6,\xbe\x8b;\x06R\xa4\xc7\x00>\xf1\x13\xdb\xe16|!\xbe\xa3\xf7\xfd\x7f\xb3\xd6\xef?\x84\xbb\'\x81\xb3\xd6\xef?n\x04\xde\xcb9\xb6,\xbe\x8b;\x06R\xa4\xc7\x00>\xf1\x13\xdb\xe16|!\xbe\xa3\xf7\xfd\x7f\xb3\xd6\xef?\x84\xbb\'\x81\xb3\xd6\xef?n\x04\xde\xcb9\xb6,\xbe\xec\xb9\xc3\x1c\xe3j\xa8\xbf6\x9a\xf5\x8f\x11\xb8\xaf?\xe1\x82\x17\xb9\x94\xaa\xf0?\xc7\xe0O%i\x84\xef?~\xc3\xb6Tr\x00V\xbf\x85u\x8b\xec\xcc\x12,\xbf2\x88\x0c9\x1e\xc4\xe4>\x181[\x92\xa5\xcb,\xbf\xf8\x07\xc7o\xa7\xd6\xef?\x05\x8e\xd3=\x10\xd6\xef?\x9b\x9d1\x93\xcd\x12,\xbfG\xde\xfa\xcf\xb1\xc2\xe4>L\xd6\xd1\xa3X\xcb,\xbfI?%k\xa7\xd6\xef?\xb0\xcb\xe2=\x10\xd6\xef?WXe\xed\xba\x12,\xbf4\xb5\xa6\xc4\xec\xcc\xe4>\x11\xf29\xdc\x9c\xca,\xbf\xa7\x9d\xdat\xa7\xd6\xef?/o\xb1=\x10\xd6\xef?\x8f\xdbN*\xab\x12,\xbf\xe2\xe8\xe4du\xc3\xe4>])\x85\'P\xcb,\xbf\xd2\xad\xf0\x96\xa7\xd6\xef?;\x80\xba>\x10\xd6\xef?\x1a\xd7\x1b\xe6\x10\x13,\xbfN^\xc2T\x86\xd4\xe4>(\xd1\xe4_\xb4\xcd,\xbf\xbf\xb32T\xa7\xd6\xef?\xe0L\xbfA\x10\xd6\xef?\x8e-\x10\x88h\x13,\xbf\xa1\xa3r\x8a\xb5\x81\xe0>\xff"\x16\xb2\x12\xf3,\xbfo\x9cZ\x0e\xa6\xd6\xef?\x159\x85B\x10\xd6\xef?:\xebZ\x9a\xf1\xbcL?)\x83u\x8b\x8d\xd3\x10\xbf\xccOs\x9d\xcco\xfd>\x08\x14u\x12\xb7\xd6\xef?\x80\x90\xd0\xb90\xd2\x0c\xbf\x88\x196:3lL?\xc3\x8a7\x16\x98H\x11\xbf\xec\x91UF\x16}\xe1>\xd5P\x9e&\xb7\xd6\xef? >O\x9cG!\x12\xbfi\xafIv3\x10L?\xbe\xbd_\xa4\xa8\n\x11\xbf\'\xc9\xe7\x85\x19\xee\xdc>\xd6\xb3,;\xb7\xd6\xef?`\x83\x10\xb9\x96s<?'
tbsS'ts'
p15
I999
sS'part_vel'
p16
g3
(g4
(I0
tS'b'
tRp17
(I1
(I60
I5
tg7
I00
S'\xd0\x01\x9c\x1d\x12P\xbf\xbfC\x9cg\xc2\xc6\xd9\xbb>\xb4Rp|gL\xae>\x9a\x99\xff\x06\xa9k\xa3\xbex\x81,j\xe2\x8a\x95?\xc0\xfb\xe4\xc9+\x81\xd1?\xdfy\x89\x9b\xc1\xb4\xe6\xbfX\xa5\x19\x88\x15\xa9\xd9?\xa4t:#\xa2@\xc6\xbfDC\xcf\xebx>\xd4?^Yt8\xd2O\n\xa8\x13\xc6\x8c\xc2\x9c\xb8\x80\xa8\x8a\'\x01j\x94Y\x83\xa8\xdf\x06%\xbd\xaa:\x0f\xa8a\x04\x88.\xe0\xa9\xf7\xa8\x1eep\x07\x93\x83\xba(`\xda\xb1\x07>]\x9a\xa99\xbee\x7fb\xb9\xbf(w\x81\xa6~\xa0m\x02)v\x17\x8e0Ep\xa7*\xcd\x12\xb4\xd1]C\xd1(\xde\x0f\xc9D\x03(\xdb)og\x9c+\xec\n\xec\xa8V\xfd\x9f\xdeo\xf1B\xa9\xe9l\xa4\x00\xb8\xb2\x9e+\xa2h[\xf1\xfa\xc7 ?\xf5\xe4\xd1\xd81\x05\xc0?A\'%\x11\xcfJ\xb8\xbf\x16\x9b]Z\rZ\xed?V\xf6\xe1@\xbb4\xe2?2\xfa\xb8\xd0"J3\xbcmgV\x16Z\xdf\x17\xbd\xdaR\xd8\x90\xc9\xb7\x83<\xb9\xb6\tN\xd2\x90\x1b=\x00\xef\x87\xb7\xe6+\x07\xbd\xd1-R\xf56\x16\xd2<!-\x9d\xc6\x06^\x85\xbd\xf82\x11\x0f\\\xc3G=\xd5\xe4[\x12c>\xad=m\xa4Z\x8b-\xab\x96\xbd\xf6r\x82GH|\x02\xbd\x0e}~1\xc0!\x9e=:\x04o\xf7\n\x0ep\xbd%{\t\xaf\x81\x96\xc3=q\xdbX\xe4\x18\xef~\xbd\x04\x87\xda\xb71\x99\x11\xbd\xb0\x0c\xd09g\x89\xa1\xbdq\x1e\n)\xe3\xa6\xb4\xbd\xc3\xec\xab\x02\xaa\xdd\xe0\xbd\xda\x1a\xc8[1\xd2\xb3=*\x04.|$|$\xbd\xfdY\xd8\xf3|n\x01\xbehv3\xa4\x98\xae\x93\xbd\xa5\xe7\xf6K\xe9\x00\xe8=r\x84+\x07Ug\xc9=\xe4a\x8d\xe3\xc5MJ=\xd5\x8b\xbe\xaa\xee\xa1\x07>"\x0c\xffB\xc6\x9c\xaf=\xa2\x0b/\xa6J|\x0e>>b`\x84\xb6\xf0\xdb=~\\\xbd\xbf\x9esP=\xcd\xcfV\xa7\n\x01\xee\xbd\xaa\xe1t\xaf-\x1b\xcf=F}S\xaa\xfa$\x07>7\xb7\x19,~\xa4\xf6\xbdA\xa2\x03t\xfer!=-g\t5QA\r\xbe\x88\xf6\xf5{\x11\xa8\xcb=I2\x8a\x89u\xfb\xf5=\xc0#\xd1\x13_\x0f\x0c\xbe\'\t\xb6\x9c\x98\x811\xbd\x11\xb1\x80\xc3R\x08\xd2\xbd\xebeCs\xe0\x13\xd6\xbd\x14\xa9(\xa9\x85\xb5\xda\xbd\xd1\x0e-\xab\xfcP\xe0=P%\xe9\x0b\x917=\xbd\x9a@J\xfb!\xcb\xa6\xbd\x00\xf5\xa9:n\xa2\x90\xbd8\xa9F`\x05\x88\xf9=}\'\xeb\x8e\x0b8\xd9=\xce6\xcci\x9f\x18\xd8?\xee\xdbN\x1d.c\xb1\xbf\xac\xc1;\xf2h)\x1b\xbf>k>\x1fm\xc8\xee?\xc8_\xc3j\x82]\xe5\xbe\xe6d\xc0\x02\xbf\xeb<\xb3\x90\x15C\xc6\xea\xc8\xab3MgV\x1ez\x81\xc83h\xc2\xd3\xbe\xd1:\xca3:e\x90ZH}\x823s\x9bTfs\x87\x034\xe0\x1b\x8a\x8d\x9d\x81\xc44\xbe\xa4\x8a8+\x0e\x10\xb7\x15\xcc\x8b\xd4\x89x\x975\xcb+\x08\x0f\xe0_\x91\xb5\xef\xbc\xf4,\x18b\xa04\xbfS\x89n<c\xc2\xb5\xb29$\x83H\xf4\xcb\xb7x$\x86^;!\xfa5B\xe1M\xadL\xb0_6\xde\xf8\xa8`\x15\xf1\xf1\xb4\xdahp\xca\x15\xaa\x116\x0c\xf0Q\xa0\xa9\xa2\x0c8q\x00\x08w\xf9A}6\xfav\x98k\xd9\x9a\xfb6\xd7J\xea=\xba]c\xb5\x9a\xfb\xaag\xaf\x98\x946^\t\x19\xf3\xc7z\xeb8\xa8\xd6\xeeazZ17\x04\\q\xcb=\x91\x9c6}\xaf\x9c:\xf8\xf3\xda?pw\xacP\xd2\xb7\xac\xbf\xdd\x93\xa7\xc4\xfb\xc0\xe1\xbe\xf9\x14\xc5Q\xbaCn\xbf8\xb7h\x07\x1b\x12\xc9\xbf\xb6\xf6\xc6\xac \x1ap*\xd3\xd5I<\x8d\xcf\xa5*\xc2\xf9[\x91\x1a\xd1\xcd\xaa\xd7\xa4+^I\xcb\x1c*\xfe\xb1qJ\xe4\xa6\xdc*\xd5\x01\xd2Bwh\xf1.\xe3\xbaJ\x11[\xcaJ/\xd2\x0chv\x01\x0c\xc7\xafP\xc9J.M\x81\x11/0\x0b\x15\x7f\xbf`Q\xaf\xf42\x19\xa6\x11\x88>\xb0\xcc\xf2\xe8(\x90\x12\x100\xddK\x0f\x13\x96\xc5F0\xbe\xb9\xc3\xc8\nL\xc5\xb0\xefyU\xea^\xd6\xb1/$\xc7\x13?/\x1b\x89\xb0%\xb7\xb0\x8e\x11V\x94\xb0q\x9a\xf5tJ\x88O1I\xedp\xe5\x8d\xbb"1\xb1F|\xe7\xbc\xe7\xd80\xe1\xc6\xacl1eb1\xd0\n\x98+,\x94\x8f\xb1\xca=(HDR\xc61|\xe4\xd9\x9b\xa5\x1e\xa6\xb1\xf5\xfd9}L\xe4S1\x80\x00\xf7\x89\xc0\x04\xed1Il\xba\x8c\xaf\xf8\x172\x9f\x08\xb0\xfc*w(2\xab\xf8x\xe3%\xf9\xe4\xb1\xda`&{@\xae\x9a\xb1\x83`\xf5\xc9\r\x05\xf22\xce\xc8\xbb9\x16)q2\x0c\x9e\xc0\x96\xf8\r\xb1\xb28\xf5`\x1c\xe9,\x0f3\x9b\\&\x8b>g\xd22\x02\x1dD\xd0\x8e\xb6\xda\xb3\xa6\x83 \xcf\xfer\x942 \x9dD\x7f}\xabl3\x05"\xc3\x95W\x99\x1f4\xc6\xc7\xed\x88\t\x9d$\xb3g\x1c_a\x04\x9904\xaf\xceE\xf8\xcc\x01~3!\xbe\xcc.!,\xf13\xc3\xae\x1f\xf0\x13\xc3\x98\xb4\xd3\xe1\xcam\xdb\x89)4\x94\xd4s\x17\xc0\x10\xab4\xaf8Kd\xf3\xd7(4\x9b\xba\x05*K\xee\xc44\xc0/[\x04\xe3\xee\x04\xb5\xab\x93\'\x9e<P\x91\xb4\x10\x9e/\x19%\x13[5\xdd\xef\x16a\xfe\x06b4\xba\xb6\xf9\x197\x99\x1e52RC\xe8\xb6\x0c\xe7\xb5W\\\xd4\xb0\x91cp5\xaf\x1b\xb6\x18~h\x915\xd6\xf35\xdf\xd1\xae\xd3\xb5C\xd0\xc2\x15:b\xbb5\xd3\xf1J\x87\xcd\x162\xb6Z;%\xdd\xee\xf6O\xb6E5\x89\xc9q\xa8\x80?\xfe\xfc\xf6#L\x92\xe1?D\xb4\x05mmo\xa8\xbfD\xe2-:\xba\x93\x91\xbe\x11T\xd1k?\xdb\x91>\x88\xe7\xfe\x92\xee/\xe2>\xf2\xb6\x05\x7fR\xf2\xbd\xbe\xa2\x19\x8b\x7f\xf5\xa4\xa9\xbf\xbd\x0c9\x02V\xc0/\xbe\xbe\xe8\xfc\xe1\xf7\xa0\x83\xbeq\x9cx\x9e\x17G\xe0\xbf\xbaNw\x0b\x80l\xb8?\xcaMzSv\x83\xd7\xbf\xd7\x85\x9dT\x13\xee\x88\xbf^\x0e\x05.!\xbe\xe6\xbe\xfa>\xec^\xe1C\xc4\xa6I\\\xa3\xca\xf4p\xf2\xa5\xd4\xf6a{\xc2\xfdV\xa7\xe1\xdc=\x89\xc4#\xe1\xa6\xd6\x9e\xd3\xeag\xad\xd1\xa6\xa9#\xa7\xa6\xf4[\xca\xab]H\xd70\x17V\x05\xab<}\xdc\xcb\xe6i\xa3(_h\xd7\xe3Pz\xb5\xa84\x87\xefr\xa7\xe6&*\xee\xe9\xcd7\xd2z\xdc,\xbb)\x92\x1fRY\x90,b\'\xed\xe3\xe1f\xa9\xa9\x13 \x94\xa0\xc3A\xc0\xa8\xef\x01w\xe8\xde\xbc2\xab\xdf\xceB\xbf\x88\x8c\xa6-\xa0Z.\xa5\xf9\xc7,\xadf\xc5OT\xf4\x93S*\'#\xb4O\x92b\xb2\xa9\x9e\xced\x87\xe8\xb72\xac\x0f\xd5B\x04\xde\x85X\xae\x1c\x84ZD\xa01z\xaeo\x16\xc5\xc0\xca~9+>N[3\x11:0\xaa\x0e\xfeB3H\x98\xe4\xac\r\xd5\x0c\xa1)H\xbb\xae?\xd7\x80\xa1"\xd6#/\x92EVTj\xfdi\xabZ+\xe2>\xfakb\xaa\xfak)\xa1\xe7\xa8.-\xf0\x13!\x19\xde\x80"/g\x9d\x83\x81\x10\xd5\x99\xaf\xf0\xfc\x91\xd9\x13\xba\x8f+\xf7\x9f\x17l\x953y\xaa\xf1dG\x9dW\xc1b\xae\x84\xc4{F\xdeD\xf3/&\x12*\x96\xe0\x13\xab\xafjZ\xff\xd9\xba\xbd\x83,\x92\x07\x90W\xce\x1a0\xabb7\x07R\xa4\xd9\xf4\xae2y\x8bb\xacj&0\x8f\x14\xf1>\xff\xa7G\xb0=\xa6g~{\xc4\xa5\xad\x1bx\x89-d\x85q\xac\x97\xf9\xac\x8e\xc8:\x90/_\xf6\xff\x96\xd3!W0v\x8d\x82>5_\x0e1\xca\xbe\xdc\xa9\xa0\x95\xc7-lc\x8c\xab+J\xa4\xad\x07\x1e\xa9\x0b\xaavI\xb0\xd0\xdaf\x88\x07\xa9c\xb1"\xe9w\xeepB\x991\xb4\xf3\xea\x12\xa4\x8b\x18.\xaa4z\xe7x\x10\x12.\x10\x81\xa9\xcb9\xc2\xbf\xb0\x97\xfft\xf5\xfb\xac\xe1\xb1\xe1H\xe7.\xb3\xd4\xb9\xb2\xf0-\x8e\xdf\x133N.FV0\xfe\xb0\xbdA\xae\xe1\x83kE\xbb\xf0A14\xf8\x82\x15\xab\xa4\x96?\xa6H\xc3&H\x9f\xb1?\x8d\xffBa\xf6\xdf\xcc?6\xb5,My\xa4e\xbfz\xfd=\xa5f;c\xbf\x98Bzv\\\x03\xeb=O\xe9\xe2\x92y\xb7\x13>[9\xef\x87\xa3\xb35>|\xac\xa8ks\xcf\x1c\xbe\x99\x87jEq\xc9\x0b>\x91\x8a&\x8d\xf3w\xe8\xbd^\x0ei\xd7Q)%\xbeR\xf0\xac\x9b\x85\xa2>>q\xeb\x19\xef\xefD=\xbe\xc4\xf0C\x8eL@\xed\xbd\xb1!\n?k\xb5\xde=\xd06@t\x135\xe6=uF\xda\xe2\x1a\xd3a>|\x1e>\xb4\x8c4c\xbe.\xc55\xfdV\xba\x1b\xbe\xae\x0370\xf8hE>.\xeff\xfaB"(>\x05\x10\x9e\xe7\xd8\xb8s>\x85oZe\xf6E\x80>A\xda\xb5\x06\x12\xd30\xbe\x04\xe3\xd9\x11\xef\xf6\x1f>\xf4\xc2[\xb3\xe5}f\xbe,#\xfb\xb5g\xabf>\xac+\x82!z\xebN>\x06PA\x07\x0c)#>{\xb7R\xd6M\xa9K?\x9cPq\xd1\xf3\x1d\xd7>\x0c\xd8J\x01\xfaZ\xfb>\x9c\xd4\xc5\x93\xb7+\xbb>\xce\xa7Va\x16\xdc\x83\xbf_\xa6#\xe1!\x06\xe0\xbep\x80\x1fwd~\xc2\xbe?\xc1\xe2\xc0\x8fV\xfe\xbeU3\x00\xf9\x9f\x9dG\xbe\x82Q\x8az\x96\xfcG?\xe7+\xed\x1a\xd5\xfc\xe2>\xc8k\x92B\x14Z\x9e>m\xf4\xd5\xef\x82\xf9\xc4>\xfbK\x02\xfb\x9f\x97f>0^\x8cf\x01lC\xbf\x1b:\x89D\xa9\xcf\xfc>C3}p\xc8\xad\xc0>\xee\x11\x97\xdd\x86d\xe3>5a\x10\xb1\x13\x8c\x97>\xf9\xea\x9e\xb5\xe9_R\xbf'
tbsS'current_val'
p18
g3
(g4
(I0
tS'b'
tRp19
(I1
(I60
tg7
I00
S'\x05\xdf\x9d$)\xe9?@1\x1dH\xb4\xc2nL@\xe0\xe6 >\r\x05\x00@\xe0\xe6 >\r\x05\x00@\xe0\xe6 >\r\x05\x00@HX\xd5\xea#\xc8B@\x00\x00\x00\x00\x00\x00\x00=\x00\x00\x00\x00\x00\x00\x00=\x00\x00\x00\x00\x00\x00\x00=\x00\x00\x00\x00\x00\x00\x00=\x00\x00\x00\x00\x00\x00\x10=\x00\x00\x00\x00\x00\x00\x10=\x00\x00\x00\x00\x00\x00\x00=\x00\x00\x00\x00\x00\x00\x00=\x00\x00\x00\x00\x00\x00\x00=\x00\x00\x00\x00\x00\x00\x00=$\xf9\xdch\xfd(1@\xa03\x9bI\x07\xe1\x07@\xa03\x9bI\x07\xe1\x07@\xa03\x9bI\x07\xe1\x07@\xa03\x9bI\x07\xe1\x07@\xa03\x9bI\x07\xe1\x07@\xc02\x9fb\xa4^A@\x00\x00\x00\x00\x00\x00\x00\x00\x00\x00\x00\x00\x00\x00\x00\x00\x00\x00\x00\x00\x00\x00\x00\x00\x00\x00\x00\x00\x00\x00\x00\x00\x00\x00\x00\x00\x00\x00\x00\x00\x00\x00\x00\x00\x00\x00\x00\x00\x00\x00\x00\x00\x00\x00\x00\x00\x00\x00\x00\x00\x00\x00\x00\x00\x00\x00\x00\x00\x00\x00\x00\x00\x00\x00\x00\x00\x00\x00\x00\x00\x00\x00\x00\x00\x00\x00\x00\x00\x00\x00\x00\x00\x00\x00\x00\x00T\x08p\x895w0@\x80\x8b\xa6\xb8\x18\\\xf0?\x00\xde\xecp\x8a\xc6\x13@\xc0cb`\xb4\xd6\xff?\xc0cb`\xb4\xd6\xff?\xc0cb`\xb4\xd6\xff?\xc0cb`\xb4\xd6\xff?\xc0cb`\xb4\xd6\xff?\xc0cb`\xb4\xd6\xff?\xc0cb`\xb4\xd6\xff?\xc0cb`\xb4\xd6\xff?\xc0cb`\xb4\xd6\xff?\xc0cb`\xb4\xd6\xff?\xc0cb`\xb4\xd6\xff?\xc0cb`\xb4\xd6\xff?\xa0\xb7\xfdk\xc1\x1f\r@\x00\xc1[?\xc9\xd6\xff?@\xf3&?\xc9\xd6\xff?\x00i\x9a>\xc9\xd6\xff?\x00\xfb\xf9>\xc9\xd6\xff?@@\xfa@\xc9\xd6\xff?\x90[\x860#a!@\x00\xec&\xf3\xfc\xd7\xef?\xc0\x9b\xfa\x11\xac\xd8\xef?\x00\xf3\xe2\xbb5\xd8\xef?'
tbs.